   2   2   0   0
  0.4000000E+04  0.2000000E-08  0.2000000E-08  0.2000000E-08  0.5000000E-15
  1.000000000000000E-004
  CAR 
 unknown system                          
      1.23703734    -11.31681912  301     -9.85203907      1.00000000
    -11.317  0.0000E+00  0.0000E+00
    -11.275  0.0000E+00  0.0000E+00
    -11.233  0.0000E+00  0.0000E+00
    -11.191  0.0000E+00  0.0000E+00
    -11.149  0.0000E+00  0.0000E+00
    -11.108  0.0000E+00  0.0000E+00
    -11.066  0.0000E+00  0.0000E+00
    -11.024  0.0000E+00  0.0000E+00
    -10.982  0.0000E+00  0.0000E+00
    -10.940  0.0000E+00  0.0000E+00
    -10.898  0.2122E-16  0.8882E-18
    -10.857  0.2186E-14  0.9237E-16
    -10.815  0.1808E-12  0.7657E-14
    -10.773  0.1059E-10  0.4509E-12
    -10.731  0.4397E-09  0.1885E-10
    -10.689  0.1293E-07  0.5601E-09
    -10.647  0.2698E-06  0.1185E-07
    -10.605  0.3992E-05  0.1789E-06
    -10.564  0.4192E-04  0.1933E-05
    -10.522  0.3127E-03  0.1502E-04
    -10.480  0.1658E-02  0.8439E-04
    -10.438  0.6247E-02  0.3458E-03
    -10.396  0.1674E-01  0.1046E-02
    -10.354  0.3192E-01  0.2382E-02
    -10.313  0.4331E-01  0.4194E-02
    -10.271  0.4182E-01  0.5944E-02
    -10.229  0.2874E-01  0.7147E-02
    -10.187  0.1405E-01  0.7735E-02
    -10.145  0.4888E-02  0.7939E-02
    -10.103  0.1209E-02  0.7990E-02
    -10.061  0.2126E-03  0.7999E-02
    -10.020  0.2657E-04  0.8000E-02
     -9.978  0.2357E-05  0.8000E-02
     -9.936  0.1484E-06  0.8000E-02
     -9.894  0.6630E-08  0.8000E-02
     -9.852  0.2100E-09  0.8000E-02
     -9.810  0.4712E-11  0.8000E-02
     -9.769  0.7488E-13  0.8000E-02
     -9.727  0.8490E-15  0.8000E-02
     -9.685  0.0000E+00  0.8000E-02
     -9.643  0.0000E+00  0.8000E-02
     -9.601  0.0000E+00  0.8000E-02
     -9.559  0.0000E+00  0.8000E-02
     -9.517  0.0000E+00  0.8000E-02
     -9.476  0.0000E+00  0.8000E-02
     -9.434  0.0000E+00  0.8000E-02
     -9.392  0.0000E+00  0.8000E-02
     -9.350  0.0000E+00  0.8000E-02
     -9.308  0.0000E+00  0.8000E-02
     -9.266  0.0000E+00  0.8000E-02
     -9.225  0.0000E+00  0.8000E-02
     -9.183  0.0000E+00  0.8000E-02
     -9.141  0.0000E+00  0.8000E-02
     -9.099  0.0000E+00  0.8000E-02
     -9.057  0.0000E+00  0.8000E-02
     -9.015  0.0000E+00  0.8000E-02
     -8.973  0.0000E+00  0.8000E-02
     -8.932  0.0000E+00  0.8000E-02
     -8.890  0.0000E+00  0.8000E-02
     -8.848  0.0000E+00  0.8000E-02
     -8.806  0.0000E+00  0.8000E-02
     -8.764  0.0000E+00  0.8000E-02
     -8.722  0.0000E+00  0.8000E-02
     -8.681  0.0000E+00  0.8000E-02
     -8.639  0.0000E+00  0.8000E-02
     -8.597  0.0000E+00  0.8000E-02
     -8.555  0.0000E+00  0.8000E-02
     -8.513  0.0000E+00  0.8000E-02
     -8.471  0.0000E+00  0.8000E-02
     -8.429  0.0000E+00  0.8000E-02
     -8.388  0.0000E+00  0.8000E-02
     -8.346  0.0000E+00  0.8000E-02
     -8.304  0.0000E+00  0.8000E-02
     -8.262  0.0000E+00  0.8000E-02
     -8.220  0.0000E+00  0.8000E-02
     -8.178  0.0000E+00  0.8000E-02
     -8.137  0.0000E+00  0.8000E-02
     -8.095  0.0000E+00  0.8000E-02
     -8.053  0.0000E+00  0.8000E-02
     -8.011  0.0000E+00  0.8000E-02
     -7.969  0.0000E+00  0.8000E-02
     -7.927  0.0000E+00  0.8000E-02
     -7.885  0.0000E+00  0.8000E-02
     -7.844  0.0000E+00  0.8000E-02
     -7.802  0.0000E+00  0.8000E-02
     -7.760  0.0000E+00  0.8000E-02
     -7.718  0.0000E+00  0.8000E-02
     -7.676  0.0000E+00  0.8000E-02
     -7.634  0.0000E+00  0.8000E-02
     -7.593  0.0000E+00  0.8000E-02
     -7.551  0.0000E+00  0.8000E-02
     -7.509  0.0000E+00  0.8000E-02
     -7.467  0.0000E+00  0.8000E-02
     -7.425  0.0000E+00  0.8000E-02
     -7.383  0.0000E+00  0.8000E-02
     -7.341  0.0000E+00  0.8000E-02
     -7.300  0.0000E+00  0.8000E-02
     -7.258  0.0000E+00  0.8000E-02
     -7.216  0.0000E+00  0.8000E-02
     -7.174  0.0000E+00  0.8000E-02
     -7.132  0.0000E+00  0.8000E-02
     -7.090  0.0000E+00  0.8000E-02
     -7.049  0.0000E+00  0.8000E-02
     -7.007  0.0000E+00  0.8000E-02
     -6.965  0.0000E+00  0.8000E-02
     -6.923  0.0000E+00  0.8000E-02
     -6.881  0.0000E+00  0.8000E-02
     -6.839  0.0000E+00  0.8000E-02
     -6.797  0.0000E+00  0.8000E-02
     -6.756  0.0000E+00  0.8000E-02
     -6.714  0.0000E+00  0.8000E-02
     -6.672  0.0000E+00  0.8000E-02
     -6.630  0.0000E+00  0.8000E-02
     -6.588  0.0000E+00  0.8000E-02
     -6.546  0.0000E+00  0.8000E-02
     -6.505  0.0000E+00  0.8000E-02
     -6.463  0.0000E+00  0.8000E-02
     -6.421  0.0000E+00  0.8000E-02
     -6.379  0.0000E+00  0.8000E-02
     -6.337  0.0000E+00  0.8000E-02
     -6.295  0.0000E+00  0.8000E-02
     -6.253  0.0000E+00  0.8000E-02
     -6.212  0.0000E+00  0.8000E-02
     -6.170  0.0000E+00  0.8000E-02
     -6.128  0.0000E+00  0.8000E-02
     -6.086  0.0000E+00  0.8000E-02
     -6.044  0.0000E+00  0.8000E-02
     -6.002  0.0000E+00  0.8000E-02
     -5.961  0.0000E+00  0.8000E-02
     -5.919  0.0000E+00  0.8000E-02
     -5.877  0.0000E+00  0.8000E-02
     -5.835  0.0000E+00  0.8000E-02
     -5.793  0.0000E+00  0.8000E-02
     -5.751  0.0000E+00  0.8000E-02
     -5.709  0.0000E+00  0.8000E-02
     -5.668  0.0000E+00  0.8000E-02
     -5.626  0.0000E+00  0.8000E-02
     -5.584  0.0000E+00  0.8000E-02
     -5.542  0.0000E+00  0.8000E-02
     -5.500  0.0000E+00  0.8000E-02
     -5.458  0.0000E+00  0.8000E-02
     -5.417  0.0000E+00  0.8000E-02
     -5.375  0.0000E+00  0.8000E-02
     -5.333  0.0000E+00  0.8000E-02
     -5.291  0.0000E+00  0.8000E-02
     -5.249  0.0000E+00  0.8000E-02
     -5.207  0.0000E+00  0.8000E-02
     -5.165  0.0000E+00  0.8000E-02
     -5.124  0.0000E+00  0.8000E-02
     -5.082  0.0000E+00  0.8000E-02
     -5.040  0.0000E+00  0.8000E-02
     -4.998  0.0000E+00  0.8000E-02
     -4.956  0.0000E+00  0.8000E-02
     -4.914  0.0000E+00  0.8000E-02
     -4.873  0.0000E+00  0.8000E-02
     -4.831  0.0000E+00  0.8000E-02
     -4.789  0.0000E+00  0.8000E-02
     -4.747  0.0000E+00  0.8000E-02
     -4.705  0.0000E+00  0.8000E-02
     -4.663  0.0000E+00  0.8000E-02
     -4.621  0.0000E+00  0.8000E-02
     -4.580  0.0000E+00  0.8000E-02
     -4.538  0.0000E+00  0.8000E-02
     -4.496  0.0000E+00  0.8000E-02
     -4.454  0.0000E+00  0.8000E-02
     -4.412  0.0000E+00  0.8000E-02
     -4.370  0.0000E+00  0.8000E-02
     -4.329  0.0000E+00  0.8000E-02
     -4.287  0.0000E+00  0.8000E-02
     -4.245  0.0000E+00  0.8000E-02
     -4.203  0.0000E+00  0.8000E-02
     -4.161  0.0000E+00  0.8000E-02
     -4.119  0.0000E+00  0.8000E-02
     -4.077  0.0000E+00  0.8000E-02
     -4.036  0.0000E+00  0.8000E-02
     -3.994  0.0000E+00  0.8000E-02
     -3.952  0.0000E+00  0.8000E-02
     -3.910  0.0000E+00  0.8000E-02
     -3.868  0.0000E+00  0.8000E-02
     -3.826  0.0000E+00  0.8000E-02
     -3.785  0.0000E+00  0.8000E-02
     -3.743  0.0000E+00  0.8000E-02
     -3.701  0.0000E+00  0.8000E-02
     -3.659  0.0000E+00  0.8000E-02
     -3.617  0.0000E+00  0.8000E-02
     -3.575  0.0000E+00  0.8000E-02
     -3.533  0.0000E+00  0.8000E-02
     -3.492  0.0000E+00  0.8000E-02
     -3.450  0.0000E+00  0.8000E-02
     -3.408  0.0000E+00  0.8000E-02
     -3.366  0.0000E+00  0.8000E-02
     -3.324  0.0000E+00  0.8000E-02
     -3.282  0.0000E+00  0.8000E-02
     -3.241  0.0000E+00  0.8000E-02
     -3.199  0.0000E+00  0.8000E-02
     -3.157  0.0000E+00  0.8000E-02
     -3.115  0.0000E+00  0.8000E-02
     -3.073  0.0000E+00  0.8000E-02
     -3.031  0.0000E+00  0.8000E-02
     -2.989  0.0000E+00  0.8000E-02
     -2.948  0.0000E+00  0.8000E-02
     -2.906  0.0000E+00  0.8000E-02
     -2.864  0.0000E+00  0.8000E-02
     -2.822  0.0000E+00  0.8000E-02
     -2.780  0.0000E+00  0.8000E-02
     -2.738  0.0000E+00  0.8000E-02
     -2.697  0.0000E+00  0.8000E-02
     -2.655  0.0000E+00  0.8000E-02
     -2.613  0.0000E+00  0.8000E-02
     -2.571  0.0000E+00  0.8000E-02
     -2.529  0.0000E+00  0.8000E-02
     -2.487  0.0000E+00  0.8000E-02
     -2.445  0.0000E+00  0.8000E-02
     -2.404  0.0000E+00  0.8000E-02
     -2.362  0.0000E+00  0.8000E-02
     -2.320  0.0000E+00  0.8000E-02
     -2.278  0.0000E+00  0.8000E-02
     -2.236  0.0000E+00  0.8000E-02
     -2.194  0.0000E+00  0.8000E-02
     -2.153  0.0000E+00  0.8000E-02
     -2.111  0.0000E+00  0.8000E-02
     -2.069  0.0000E+00  0.8000E-02
     -2.027  0.0000E+00  0.8000E-02
     -1.985  0.0000E+00  0.8000E-02
     -1.943  0.0000E+00  0.8000E-02
     -1.901  0.0000E+00  0.8000E-02
     -1.860  0.0000E+00  0.8000E-02
     -1.818  0.0000E+00  0.8000E-02
     -1.776  0.0000E+00  0.8000E-02
     -1.734  0.0000E+00  0.8000E-02
     -1.692  0.0000E+00  0.8000E-02
     -1.650  0.0000E+00  0.8000E-02
     -1.609  0.0000E+00  0.8000E-02
     -1.567  0.0000E+00  0.8000E-02
     -1.525  0.0000E+00  0.8000E-02
     -1.483  0.0000E+00  0.8000E-02
     -1.441  0.0000E+00  0.8000E-02
     -1.399  0.0000E+00  0.8000E-02
     -1.357  0.0000E+00  0.8000E-02
     -1.316  0.0000E+00  0.8000E-02
     -1.274  0.0000E+00  0.8000E-02
     -1.232  0.0000E+00  0.8000E-02
     -1.190  0.0000E+00  0.8000E-02
     -1.148  0.0000E+00  0.8000E-02
     -1.106  0.0000E+00  0.8000E-02
     -1.065  0.0000E+00  0.8000E-02
     -1.023  0.0000E+00  0.8000E-02
     -0.981  0.0000E+00  0.8000E-02
     -0.939  0.0000E+00  0.8000E-02
     -0.897  0.0000E+00  0.8000E-02
     -0.855  0.0000E+00  0.8000E-02
     -0.813  0.0000E+00  0.8000E-02
     -0.772  0.0000E+00  0.8000E-02
     -0.730  0.0000E+00  0.8000E-02
     -0.688  0.2122E-16  0.8000E-02
     -0.646  0.2589E-14  0.8000E-02
     -0.604  0.2115E-12  0.8000E-02
     -0.562  0.1224E-10  0.8000E-02
     -0.521  0.5016E-09  0.8000E-02
     -0.479  0.1457E-07  0.8000E-02
     -0.437  0.3000E-06  0.8000E-02
     -0.395  0.4383E-05  0.8000E-02
     -0.353  0.4545E-04  0.8002E-02
     -0.311  0.3347E-03  0.8016E-02
     -0.269  0.1752E-02  0.8089E-02
     -0.228  0.6519E-02  0.8362E-02
     -0.186  0.1725E-01  0.9084E-02
     -0.144  0.3249E-01  0.1044E-01
     -0.102  0.4358E-01  0.1227E-01
     -0.060  0.4195E-01  0.1402E-01
     -0.018  0.3051E-01  0.1530E-01
      0.023  0.2230E-01  0.1623E-01
      0.065  0.2850E-01  0.1743E-01
      0.107  0.5079E-01  0.1955E-01
      0.149  0.8135E-01  0.2296E-01
      0.191  0.1064E+00  0.2741E-01
      0.233  0.1119E+00  0.3209E-01
      0.275  0.9219E-01  0.3595E-01
      0.316  0.5787E-01  0.3837E-01
      0.358  0.2700E-01  0.3950E-01
      0.400  0.9218E-02  0.3989E-01
      0.442  0.2280E-02  0.3998E-01
      0.484  0.4064E-03  0.4000E-01
      0.526  0.5199E-04  0.4000E-01
      0.567  0.4761E-05  0.4000E-01
      0.609  0.3116E-06  0.4000E-01
      0.651  0.1455E-07  0.4000E-01
      0.693  0.4839E-09  0.4000E-01
      0.735  0.1145E-10  0.4000E-01
      0.777  0.1925E-12  0.4000E-01
      0.819  0.2314E-14  0.4000E-01
      0.860  0.2122E-16  0.4000E-01
      0.902  0.0000E+00  0.4000E-01
      0.944  0.0000E+00  0.4000E-01
      0.986  0.0000E+00  0.4000E-01
      1.028  0.0000E+00  0.4000E-01
      1.070  0.0000E+00  0.4000E-01
      1.111  0.0000E+00  0.4000E-01
      1.153  0.0000E+00  0.4000E-01
      1.195  0.0000E+00  0.4000E-01
      1.237  0.0000E+00  0.4000E-01
