    2    2  250    1
  0.4000000E+04  0.2000000E-08  0.2000000E-08  0.2000000E-08  0.5000000E-15
  1.000000000000000E-004
  CAR 
 unknown system                          
      2      1      5
 
  0.0000000E+00  0.0000000E+00  0.0000000E+00  0.1000000E+01
    1      -10.316819   1.000000
    2       -0.107903   0.000000
    3        0.136275   0.000000
    4        0.210784   0.000000
    5        0.237037   0.000000
