       N       E                     dE             d eps       ncg     rms          rms(c)
DAV:   1    -0.295503872136E+01   -0.29550E+01   -0.20977E+02    10   0.865E+01
DAV:   2    -0.734458232792E+01   -0.43895E+01   -0.43895E+01    10   0.358E+01
DAV:   3    -0.745717497689E+01   -0.11259E+00   -0.11259E+00    15   0.864E+00
DAV:   4    -0.745724559755E+01   -0.70621E-04   -0.70621E-04    15   0.202E-01
DAV:   5    -0.745724563812E+01   -0.40565E-07   -0.40579E-07    15   0.526E-03    0.489E+00
DAV:   6    -0.694527310511E+01    0.51197E+00   -0.25692E-01    10   0.237E+00    0.268E+00
DAV:   7    -0.667188487208E+01    0.27339E+00   -0.61428E-01    15   0.370E+00    0.341E-01
DAV:   8    -0.667570101833E+01   -0.38161E-02   -0.75495E-03    15   0.355E-01    0.310E-01
DAV:   9    -0.667188894715E+01    0.38121E-02   -0.61911E-03    20   0.360E-01    0.539E-02
DAV:  10    -0.667337168559E+01   -0.14827E-02   -0.11275E-03    15   0.143E-01    0.128E-02
DAV:  11    -0.667417179669E+01   -0.80011E-03   -0.11019E-04    20   0.399E-02    0.222E-02
DAV:  12    -0.667589671367E+01   -0.17249E-02   -0.42164E-04    10   0.960E-02    0.922E-03
DAV:  13    -0.667623098290E+01   -0.33427E-03   -0.36301E-05    15   0.266E-02    0.256E-03
DAV:  14    -0.667631327773E+01   -0.82295E-04   -0.47530E-06    20   0.910E-03
   1 F= -.66763133E+01 E0= -.66763133E+01  d E =-.667631E+01
       N       E                     dE             d eps       ncg     rms          rms(c)
DAV:   1    -0.650401755014E+01    0.17221E+00   -0.10844E+01    10   0.244E+01    0.151E+00
DAV:   2    -0.647160359942E+01    0.32414E-01   -0.92413E-02    15   0.196E+00    0.769E-01
DAV:   3    -0.646309004247E+01    0.85136E-02   -0.26379E-02    20   0.668E-01    0.115E-01
DAV:   4    -0.646369632442E+01   -0.60628E-03   -0.62154E-04    15   0.118E-01    0.345E-02
DAV:   5    -0.646399937032E+01   -0.30305E-03   -0.13181E-04    20   0.564E-02    0.546E-03
DAV:   6    -0.646406020038E+01   -0.60830E-04   -0.93557E-06    20   0.131E-02
   2 F= -.64640602E+01 E0= -.64640602E+01  d E =0.212253E+00
       N       E                     dE             d eps       ncg     rms          rms(c)
DAV:   1    -0.674378810515E+01   -0.27979E+00   -0.54069E+00    10   0.165E+01    0.971E-01
DAV:   2    -0.673095573046E+01    0.12832E-01   -0.30637E-02    20   0.129E+00    0.587E-01
DAV:   3    -0.672452084979E+01    0.64349E-02   -0.26254E-02    15   0.688E-01    0.869E-02
DAV:   4    -0.672452605269E+01   -0.52029E-05   -0.32496E-04    15   0.738E-02
   3 F= -.67245261E+01 E0= -.67245261E+01  d E =-.482128E-01
       N       E                     dE             d eps       ncg     rms          rms(c)
DAV:   1    -0.672481461194E+01   -0.29376E-03   -0.93260E-04    15   0.233E-01    0.146E-02
DAV:   2    -0.672485512157E+01   -0.40510E-04   -0.44727E-06    20   0.871E-03
   4 F= -.67248551E+01 E0= -.67248551E+01  d E =-.485418E-01
