<?xml version="1.0" encoding="ISO-8859-1"?>
<modeling>
 <generator>
  <i name="program" type="string">vasp </i>
  <i name="version" type="string">5.4.1  </i>
  <i name="subversion" type="string">24Jun15 (build Oct 13 2016 10:39:43) complex                          parallel </i>
  <i name="platform" type="string">IFC91_craympich </i>
  <i name="date" type="string">2017 12 08 </i>
  <i name="time" type="string">15:45:08 </i>
 </generator>
 <incar>
  <i type="string" name="PREC">accurate</i>
  <i type="string" name="ALGO"> normal</i>
  <i type="int" name="ISPIN">     1</i>
  <i type="int" name="ICHARG">     1</i>
  <i type="int" name="NELM">   250</i>
  <i type="int" name="NELMDL">    -5</i>
  <i type="int" name="IBRION">     2</i>
  <i name="EDIFF">      0.00010000</i>
  <i name="EDIFFG">     -0.05000000</i>
  <i type="int" name="NSW">   250</i>
  <i type="int" name="ISIF">     2</i>
  <i name="ENCUT">    300.00000000</i>
  <i type="string" name="LREAL"> auto</i>
  <i type="int" name="ISMEAR">     0</i>
  <i name="SIGMA">      0.10000000</i>
  <i type="logical" name="LVHAR"> T  </i>
  <v type="int" name="KPOINT_BSE">    -1     0     0     0</v>
  <i type="int" name="NELM">   250</i>
  <i type="string" name="GGA"> PE</i>
  <i type="logical" name="LUSE_VDW"> F  </i>
  <i type="logical" name="LDIPOL"> F  </i>
 </incar>
 <kpoints>
  <generation param="Gamma">
   <v type="int" name="divisions">       1        1        1 </v>
   <v name="usershift">      0.00000000       0.00000000       0.00000000 </v>
   <v name="genvec1">      1.00000000       0.00000000       0.00000000 </v>
   <v name="genvec2">      0.00000000       1.00000000       0.00000000 </v>
   <v name="genvec3">      0.00000000       0.00000000       1.00000000 </v>
   <v name="shift">      0.00000000       0.00000000       0.00000000 </v>
  </generation>
  <varray name="kpointlist" >
   <v>       0.00000000       0.00000000       0.00000000 </v>
  </varray>
  <varray name="weights" >
   <v>       1.00000000 </v>
  </varray>
 </kpoints>
 <parameters>
  <separator name="general" >
   <i type="string" name="SYSTEM">unknown system</i>
   <i type="logical" name="LCOMPAT"> F  </i>
  </separator>
  <separator name="electronic" >
   <i type="string" name="PREC">accura</i>
   <i name="ENMAX">    300.00000000</i>
   <i name="ENAUG">    400.00000000</i>
   <i name="EDIFF">      0.00010000</i>
   <i type="int" name="IALGO">    38</i>
   <i type="int" name="IWAVPR">    11</i>
   <i type="int" name="NBANDS">     5</i>
   <i name="NELECT">      2.00000000</i>
   <i type="int" name="TURBO">     0</i>
   <i type="int" name="IRESTART">     0</i>
   <i type="int" name="NREBOOT">     0</i>
   <i type="int" name="NMIN">     0</i>
   <i name="EREF">      0.00000000</i>
   <separator name="electronic smearing" >
    <i type="int" name="ISMEAR">     0</i>
    <i name="SIGMA">      0.10000000</i>
    <i name="KSPACING">      0.50000000</i>
    <i type="logical" name="KGAMMA"> T  </i>
   </separator>
   <separator name="electronic projectors" >
    <i type="logical" name="LREAL"> T  </i>
    <v name="ROPT">     -0.00025000</v>
    <i type="int" name="LMAXPAW">  -100</i>
    <i type="int" name="LMAXMIX">     2</i>
    <i type="logical" name="NLSPLINE"> F  </i>
   </separator>
   <separator name="electronic startup" >
    <i type="int" name="ISTART">     0</i>
    <i type="int" name="ICHARG">     1</i>
    <i type="int" name="INIWAV">     1</i>
   </separator>
   <separator name="electronic spin" >
    <i type="int" name="ISPIN">     1</i>
    <i type="logical" name="LNONCOLLINEAR"> F  </i>
    <v name="MAGMOM">      1.00000000      1.00000000</v>
    <i name="NUPDOWN">     -1.00000000</i>
    <i type="logical" name="LSORBIT"> F  </i>
    <v name="SAXIS">      0.00000000      0.00000000      1.00000000</v>
    <i type="logical" name="LSPIRAL"> F  </i>
    <v name="QSPIRAL">      0.00000000      0.00000000      0.00000000</v>
    <i type="logical" name="LZEROZ"> F  </i>
   </separator>
   <separator name="electronic exchange-correlation" >
    <i type="logical" name="LASPH"> F  </i>
    <i type="logical" name="LMETAGGA"> F  </i>
   </separator>
   <separator name="electronic convergence" >
    <i type="int" name="NELM">   250</i>
    <i type="int" name="NELMDL">    -5</i>
    <i type="int" name="NELMIN">     2</i>
    <i name="ENINI">    300.00000000</i>
    <separator name="electronic convergence detail" >
     <i type="logical" name="LDIAG"> T  </i>
     <i type="logical" name="LSUBROT"> F  </i>
     <i name="WEIMIN">      0.00100000</i>
     <i name="EBREAK">      0.00000500</i>
     <i name="DEPER">      0.30000000</i>
     <i type="int" name="NRMM">     4</i>
     <i name="TIME">      0.40000000</i>
    </separator>
   </separator>
   <separator name="electronic mixer" >
    <i name="AMIX">      0.40000000</i>
    <i name="BMIX">      1.00000000</i>
    <i name="AMIN">      0.10000000</i>
    <i name="AMIX_MAG">      1.60000000</i>
    <i name="BMIX_MAG">      1.00000000</i>
    <separator name="electronic mixer details" >
     <i type="int" name="IMIX">     4</i>
     <i type="logical" name="MIXFIRST"> F  </i>
     <i type="int" name="MAXMIX">   -45</i>
     <i name="WC">    100.00000000</i>
     <i type="int" name="INIMIX">     1</i>
     <i type="int" name="MIXPRE">     1</i>
     <i type="int" name="MREMOVE">     5</i>
    </separator>
   </separator>
   <separator name="electronic dipolcorrection" >
    <i type="logical" name="LDIPOL"> F  </i>
    <i type="logical" name="LMONO"> F  </i>
    <i type="int" name="IDIPOL">     0</i>
    <i name="EPSILON">      1.00000000</i>
    <v name="DIPOL">   -100.00000000   -100.00000000   -100.00000000</v>
    <i name="EFIELD">      0.00000000</i>
   </separator>
  </separator>
  <separator name="grids" >
   <i type="int" name="NGX">   120</i>
   <i type="int" name="NGY">   120</i>
   <i type="int" name="NGZ">   120</i>
   <i type="int" name="NGXF">   240</i>
   <i type="int" name="NGYF">   240</i>
   <i type="int" name="NGZF">   240</i>
   <i type="logical" name="ADDGRID"> F  </i>
  </separator>
  <separator name="ionic" >
   <i type="int" name="NSW">   250</i>
   <i type="int" name="IBRION">     2</i>
   <i type="int" name="ISIF">     2</i>
   <i name="PSTRESS">      0.00000000</i>
   <i name="EDIFFG">     -0.05000000</i>
   <i type="int" name="NFREE">     1</i>
   <i name="POTIM">      0.50000000</i>
   <i name="SMASS">     -3.00000000</i>
   <i name="SCALEE">      1.00000000</i>
  </separator>
  <separator name="ionic md" >
   <i name="TEBEG">      0.00010000</i>
   <i name="TEEND">      0.00010000</i>
   <i type="int" name="NBLOCK">     1</i>
   <i type="int" name="KBLOCK">   250</i>
   <i type="int" name="NPACO">   256</i>
   <i name="APACO">     16.00000000</i>
  </separator>
  <separator name="symmetry" >
   <i type="int" name="ISYM">     2</i>
   <i name="SYMPREC">      0.00001000</i>
  </separator>
  <separator name="dos" >
   <i type="logical" name="LORBIT"> F  </i>
   <v name="RWIGS">     -1.00000000</v>
   <i type="int" name="NEDOS">   301</i>
   <i name="EMIN">     10.00000000</i>
   <i name="EMAX">    -10.00000000</i>
   <i name="EFERMI">      0.00000000</i>
  </separator>
  <separator name="writing" >
   <i type="int" name="NWRITE">     2</i>
   <i type="logical" name="LWAVE"> T  </i>
   <i type="logical" name="LCHARG"> T  </i>
   <i type="logical" name="LPARD"> F  </i>
   <i type="logical" name="LVTOT"> F  </i>
   <i type="logical" name="LVHAR"> T  </i>
   <i type="logical" name="LELF"> F  </i>
   <i type="logical" name="LOPTICS"> F  </i>
   <v name="STM">      0.00000000      0.00000000      0.00000000      0.00000000      0.00000000      0.00000000      0.00000000</v>
  </separator>
  <separator name="performance" >
   <i type="int" name="NPAR">     1</i>
   <i type="int" name="NSIM">     4</i>
   <i type="int" name="NBLK">    -1</i>
   <i type="logical" name="LPLANE"> T  </i>
   <i type="logical" name="LSCALAPACK"> T  </i>
   <i type="logical" name="LSCAAWARE"> F  </i>
   <i type="logical" name="LSCALU"> F  </i>
   <i type="logical" name="LASYNC"> F  </i>
   <i type="logical" name="LORBITALREAL"> F  </i>
  </separator>
  <separator name="miscellaneous" >
   <i type="int" name="IDIOT">     3</i>
   <i type="logical" name="LMUSIC"> F  </i>
   <v name="POMASS">      1.00000000</v>
   <v name="DARWINR">      0.00000000</v>
   <v name="DARWINV">      1.00000000</v>
   <i type="logical" name="LCORR"> T  </i>
  </separator>
  <i type="logical" name="GGA_COMPAT"> T  </i>
  <i type="logical" name="LBERRY"> F  </i>
  <i type="int" name="ICORELEVEL">     0</i>
  <i type="logical" name="LDAU"> F  </i>
  <i type="int" name="I_CONSTRAINED_M">     0</i>
  <separator name="electronic exchange-correlation" >
   <i type="string" name="GGA">PE</i>
   <i type="int" name="VOSKOWN">     0</i>
   <i type="logical" name="LHFCALC"> F  </i>
   <i type="string" name="PRECFOCK"></i>
   <i type="logical" name="LSYMGRAD"> F  </i>
   <i type="logical" name="LHFONE"> F  </i>
   <i type="logical" name="LRHFCALC"> F  </i>
   <i type="logical" name="LTHOMAS"> F  </i>
   <i type="logical" name="LMODELHF"> F  </i>
   <i name="ENCUT4O">     -1.00000000</i>
   <i type="int" name="EXXOEP">     0</i>
   <i type="int" name="FOURORBIT">     0</i>
   <i name="AEXX">      0.00000000</i>
   <i name="HFALPHA">      0.00000000</i>
   <i name="MCALPHA">      0.00000000</i>
   <i name="ALDAX">      1.00000000</i>
   <i name="AGGAX">      1.00000000</i>
   <i name="ALDAC">      1.00000000</i>
   <i name="AGGAC">      1.00000000</i>
   <i type="int" name="NKREDX">     1</i>
   <i type="int" name="NKREDY">     1</i>
   <i type="int" name="NKREDZ">     1</i>
   <i type="logical" name="SHIFTRED"> F  </i>
   <i type="logical" name="ODDONLY"> F  </i>
   <i type="logical" name="EVENONLY"> F  </i>
   <i type="int" name="LMAXFOCK">     0</i>
   <i type="int" name="NMAXFOCKAE">     0</i>
   <i type="logical" name="LFOCKAEDFT"> F  </i>
   <i name="HFSCREEN">      0.00000000</i>
   <i name="HFSCREENC">      0.00000000</i>
   <i type="int" name="NBANDSGWLOW">     0</i>
  </separator>
  <separator name="vdW DFT" >
   <i type="logical" name="LUSE_VDW"> F  </i>
   <i name="Zab_VDW">     -0.84910000</i>
   <i name="PARAM1">      0.12340000</i>
   <i name="PARAM2">      1.00000000</i>
   <i name="PARAM3">      0.00000000</i>
  </separator>
  <separator name="model GW" >
   <i type="int" name="MODEL_GW">     0</i>
   <i name="MODEL_EPS0">   2400.00000000</i>
   <i name="MODEL_ALPHA">      1.00000000</i>
  </separator>
  <separator name="linear response parameters" >
   <i type="logical" name="LEPSILON"> F  </i>
   <i type="logical" name="LRPA"> F  </i>
   <i type="logical" name="LNABLA"> F  </i>
   <i type="logical" name="LVEL"> F  </i>
   <i type="int" name="KINTER">     0</i>
   <i name="CSHIFT">      0.10000000</i>
   <i name="OMEGAMAX">     -1.00000000</i>
   <i name="DEG_THRESHOLD">      0.00200000</i>
  </separator>
  <separator name="orbital magnetization" >
   <i type="logical" name="NUCIND"> F  </i>
   <v name="MAGPOS">      0.00000000      0.00000000      0.00000000</v>
   <i type="logical" name="LNICSALL"> T  </i>
   <i type="logical" name="ORBITALMAG"> F  </i>
   <i type="logical" name="LMAGBLOCH"> F  </i>
   <i type="logical" name="LCHIMAG"> F  </i>
   <i type="logical" name="LGAUGE"> T  </i>
   <i type="int" name="MAGATOM">     0</i>
   <v name="MAGDIPOL">      0.00000000      0.00000000      0.00000000</v>
   <v name="AVECCONST">      0.00000000      0.00000000      0.00000000</v>
  </separator>
  <separator name="response functions" >
   <i type="logical" name="LADDER"> F  </i>
   <i type="logical" name="LFXC"> F  </i>
   <i type="logical" name="LHARTREE"> T  </i>
   <i type="int" name="IBSE">     0</i>
   <v type="int" name="KPOINT">    -1     0     0     0</v>
   <i type="logical" name="LTCTE"> F  </i>
   <i type="logical" name="LTETE"> F  </i>
   <i type="logical" name="LTRIPLET"> F  </i>
   <i type="logical" name="LFXCEPS"> F  </i>
   <i type="logical" name="LFXHEG"> F  </i>
   <i type="int" name="NATURALO">     0</i>
   <i type="logical" name="L2ORDER"> F  </i>
   <i type="logical" name="LUSEW"> F  </i>
   <i name="ENCUTGW">     -2.00000000</i>
   <i name="ENCUTGWSOFT">     -2.00000000</i>
   <i name="ENCUTLF">     -1.00000000</i>
   <i type="int" name="LMAXMP2">    -1</i>
   <i name="SCISSOR">      0.00000000</i>
   <i type="int" name="NOMEGA">     0</i>
   <i type="int" name="NOMEGAR">     0</i>
   <i type="int" name="NBANDSGW">    -1</i>
   <i type="int" name="NBANDSO">    -1</i>
   <i type="int" name="NBANDSV">    -1</i>
   <i type="int" name="NELM">   250</i>
   <i type="int" name="NELMHF">     1</i>
   <i type="int" name="DIM">     3</i>
   <i type="int" name="ANTIRES">     0</i>
   <i name="OMEGAMAX">    -30.00000000</i>
   <i name="OMEGAMIN">    -30.00000000</i>
   <i name="OMEGATL">   -200.00000000</i>
   <i type="int" name="OMEGAGRID">     0</i>
   <i name="CSHIFT">     -0.10000000</i>
   <i type="logical" name="SELFENERGY"> F  </i>
   <i type="logical" name="LSPECTRAL"> F  </i>
   <i type="logical" name="LSPECTRALGW"> F  </i>
   <i type="logical" name="LSINGLES"> F  </i>
   <i type="logical" name="LFERMIGW"> F  </i>
   <i type="logical" name="ODDONLYGW"> F  </i>
   <i type="logical" name="EVENONLYGW"> F  </i>
   <i type="int" name="NKREDLFX">     1</i>
   <i type="int" name="NKREDLFY">     1</i>
   <i type="int" name="NKREDLFZ">     1</i>
   <i type="int" name="MAXMEM">  1800</i>
   <i type="int" name="TELESCOPE">     0</i>
   <i type="int" name="TAUPAR">     1</i>
   <i type="int" name="OMEGAPAR">    -1</i>
   <i name="LAMBDA">      1.00000000</i>
  </separator>
  <separator name="External order field" >
   <i name="OFIELD_KAPPA">      0.00000000</i>
   <v name="OFIELD_K">      0.00000000      0.00000000      0.00000000</v>
   <i name="OFIELD_Q6_NEAR">      0.00000000</i>
   <i name="OFIELD_Q6_FAR">      0.00000000</i>
   <i name="OFIELD_A">      0.00000000</i>
  </separator>
  <separator name="solvation model" >
   <i type="logical" name="LSOL"> F  </i>
  </separator>
 </parameters>
 <atominfo>
  <atoms>       2 </atoms>
  <types>       1 </types>
  <array name="atoms" >
   <dimension dim="1">ion</dimension>
   <field type="string">element</field>
   <field type="int">atomtype</field>
   <set>
    <rc><c>H </c><c>   1</c></rc>
    <rc><c>H </c><c>   1</c></rc>
   </set>
  </array>
  <array name="atomtypes" >
   <dimension dim="1">type</dimension>
   <field type="int">atomspertype</field>
   <field type="string">element</field>
   <field>mass</field>
   <field>valence</field>
   <field type="string">pseudopotential</field>
   <set>
    <rc><c>   2</c><c>H </c><c>      1.00000000</c><c>      1.00000000</c><c>  PAW_PBE H 15Jun2001                   </c></rc>
   </set>
  </array>
 </atominfo>
 <structure name="initialpos" >
  <crystal>
   <varray name="basis" >
    <v>      20.00000000       0.00000000       0.00000000 </v>
    <v>       0.00000000      20.00000000       0.00000000 </v>
    <v>       0.00000000       0.00000000      20.00000000 </v>
   </varray>
   <i name="volume">   8000.00000000 </i>
   <varray name="rec_basis" >
    <v>       0.05000000       0.00000000       0.00000000 </v>
    <v>       0.00000000       0.05000000       0.00000000 </v>
    <v>       0.00000000       0.00000000       0.05000000 </v>
   </varray>
  </crystal>
  <varray name="positions" >
   <v>       0.00000000       0.00000000       0.00000000 </v>
   <v>       0.00000000       0.00000000       0.03500000 </v>
  </varray>
 </structure>
 <calculation>
  <scstep>
   <time name="dav">    0.06    0.08</time>
   <time name="total">    0.47    0.52</time>
   <energy>
    <i name="alphaZ">      0.00121808 </i>
    <i name="ewald">     16.48732706 </i>
    <i name="hartreedc">    -24.87706409 </i>
    <i name="XCdc">      4.38344065 </i>
    <i name="pawpsdc">      4.26805487 </i>
    <i name="pawaedc">     -4.28581044 </i>
    <i name="eentropy">     -0.00000000 </i>
    <i name="bandstr">    -23.82375563 </i>
    <i name="atom">     24.89155077 </i>
    <i name="e_fr_energy">     -2.95503872 </i>
    <i name="e_wo_entrp">     -2.95503872 </i>
    <i name="e_0_energy">     -2.95503872 </i>
   </energy>
  </scstep>
  <scstep>
   <time name="dav">    0.06    0.06</time>
   <time name="total">    0.06    0.07</time>
   <energy>
    <i name="e_fr_energy">     -7.34458233 </i>
    <i name="e_wo_entrp">     -7.34458233 </i>
    <i name="e_0_energy">     -7.34458233 </i>
   </energy>
  </scstep>
  <scstep>
   <time name="dav">    0.08    0.09</time>
   <time name="total">    0.08    0.10</time>
   <energy>
    <i name="e_fr_energy">     -7.45717498 </i>
    <i name="e_wo_entrp">     -7.45717498 </i>
    <i name="e_0_energy">     -7.45717498 </i>
   </energy>
  </scstep>
  <scstep>
   <time name="dav">    0.08    0.08</time>
   <time name="total">    0.08    0.10</time>
   <energy>
    <i name="e_fr_energy">     -7.45724560 </i>
    <i name="e_wo_entrp">     -7.45724560 </i>
    <i name="e_0_energy">     -7.45724560 </i>
   </energy>
  </scstep>
  <scstep>
   <time name="dav">    0.08    0.08</time>
   <time name="total">    0.43    0.45</time>
   <energy>
    <i name="e_fr_energy">     -7.45724564 </i>
    <i name="e_wo_entrp">     -7.45724564 </i>
    <i name="e_0_energy">     -7.45724564 </i>
   </energy>
  </scstep>
  <scstep>
   <time name="dav">    0.06    0.06</time>
   <time name="total">    0.77    0.79</time>
   <energy>
    <i name="e_fr_energy">     -6.94527311 </i>
    <i name="e_wo_entrp">     -6.94527311 </i>
    <i name="e_0_energy">     -6.94527311 </i>
   </energy>
  </scstep>
  <scstep>
   <time name="dav">    0.08    0.08</time>
   <time name="total">    0.79    0.91</time>
   <energy>
    <i name="e_fr_energy">     -6.67188487 </i>
    <i name="e_wo_entrp">     -6.67188487 </i>
    <i name="e_0_energy">     -6.67188487 </i>
   </energy>
  </scstep>
  <scstep>
   <time name="dav">    0.08    0.08</time>
   <time name="total">    0.80    0.81</time>
   <energy>
    <i name="e_fr_energy">     -6.67570102 </i>
    <i name="e_wo_entrp">     -6.67570102 </i>
    <i name="e_0_energy">     -6.67570102 </i>
   </energy>
  </scstep>
  <scstep>
   <time name="dav">    0.11    0.11</time>
   <time name="total">    0.82    0.83</time>
   <energy>
    <i name="e_fr_energy">     -6.67188895 </i>
    <i name="e_wo_entrp">     -6.67188895 </i>
    <i name="e_0_energy">     -6.67188895 </i>
   </energy>
  </scstep>
  <scstep>
   <time name="dav">    0.08    0.08</time>
   <time name="total">    0.80    0.81</time>
   <energy>
    <i name="e_fr_energy">     -6.67337169 </i>
    <i name="e_wo_entrp">     -6.67337169 </i>
    <i name="e_0_energy">     -6.67337169 </i>
   </energy>
  </scstep>
  <scstep>
   <time name="dav">    0.11    0.11</time>
   <time name="total">    0.82    0.83</time>
   <energy>
    <i name="e_fr_energy">     -6.67417180 </i>
    <i name="e_wo_entrp">     -6.67417180 </i>
    <i name="e_0_energy">     -6.67417180 </i>
   </energy>
  </scstep>
  <scstep>
   <time name="dav">    0.06    0.06</time>
   <time name="total">    0.78    0.79</time>
   <energy>
    <i name="e_fr_energy">     -6.67589671 </i>
    <i name="e_wo_entrp">     -6.67589671 </i>
    <i name="e_0_energy">     -6.67589671 </i>
   </energy>
  </scstep>
  <scstep>
   <time name="dav">    0.08    0.08</time>
   <time name="total">    0.81    0.82</time>
   <energy>
    <i name="e_fr_energy">     -6.67623098 </i>
    <i name="e_wo_entrp">     -6.67623098 </i>
    <i name="e_0_energy">     -6.67623098 </i>
   </energy>
  </scstep>
  <scstep>
   <time name="dav">    0.10    0.11</time>
   <time name="total">    0.49    0.50</time>
   <energy>
    <i name="alphaZ">      0.00121808 </i>
    <i name="ewald">     16.48732706 </i>
    <i name="hartreedc">    -32.29415512 </i>
    <i name="XCdc">      5.41336522 </i>
    <i name="pawpsdc">     31.97055304 </i>
    <i name="pawaedc">    -32.02505036 </i>
    <i name="eentropy">     -0.00000000 </i>
    <i name="bandstr">    -21.12112197 </i>
    <i name="atom">     24.89155077 </i>
    <i name="e_fr_energy">     -6.67631328 </i>
    <i name="e_wo_entrp">     -6.67631328 </i>
    <i name="e_0_energy">     -6.67631328 </i>
   </energy>
  </scstep>
  <structure>
   <crystal>
    <varray name="basis" >
     <v>      20.00000000       0.00000000       0.00000000 </v>
     <v>       0.00000000      20.00000000       0.00000000 </v>
     <v>       0.00000000       0.00000000      20.00000000 </v>
    </varray>
    <i name="volume">   8000.00000000 </i>
    <varray name="rec_basis" >
     <v>       0.05000000       0.00000000       0.00000000 </v>
     <v>       0.00000000       0.05000000       0.00000000 </v>
     <v>       0.00000000       0.00000000       0.05000000 </v>
    </varray>
   </crystal>
   <varray name="positions" >
    <v>       0.00000000       0.00000000       0.00000000 </v>
    <v>       0.00000000       0.00000000       0.03500000 </v>
   </varray>
  </structure>
  <varray name="forces" >
   <v>      -0.00000000       0.00000000      -2.03398958 </v>
   <v>       0.00000000      -0.00000000       2.03398958 </v>
  </varray>
  <varray name="stress" >
   <v>      -0.07314885      -0.00000000       0.00000000 </v>
   <v>       0.00000000      -0.07314885       0.00000000 </v>
   <v>      -0.00000000       0.00000000       0.22382136 </v>
  </varray>
  <energy>
   <i name="e_fr_energy">     -6.67631328 </i>
   <i name="e_wo_entrp">     -6.67631328 </i>
   <i name="e_0_energy">     -0.00000000 </i>
  </energy>
  <time name="totalsc">   26.55   27.73</time>
 </calculation>
 <calculation>
  <scstep>
   <time name="dav">    0.06    0.06</time>
   <time name="total">    0.79    0.79</time>
   <energy>
    <i name="alphaZ">      0.00121808 </i>
    <i name="ewald">     11.98409530 </i>
    <i name="hartreedc">    -30.57577917 </i>
    <i name="XCdc">      5.20463475 </i>
    <i name="pawpsdc">     31.95608318 </i>
    <i name="pawaedc">    -32.01053764 </i>
    <i name="eentropy">     -0.00000000 </i>
    <i name="bandstr">    -17.95528282 </i>
    <i name="atom">     24.89155077 </i>
    <i name="e_fr_energy">     -6.50401755 </i>
    <i name="e_wo_entrp">     -6.50401755 </i>
    <i name="e_0_energy">     -6.50401755 </i>
   </energy>
  </scstep>
  <scstep>
   <time name="dav">    0.08    0.08</time>
   <time name="total">    0.80    0.81</time>
   <energy>
    <i name="e_fr_energy">     -6.47160360 </i>
    <i name="e_wo_entrp">     -6.47160360 </i>
    <i name="e_0_energy">     -6.47160360 </i>
   </energy>
  </scstep>
  <scstep>
   <time name="dav">    0.11    0.11</time>
   <time name="total">    0.83    0.88</time>
   <energy>
    <i name="e_fr_energy">     -6.46309004 </i>
    <i name="e_wo_entrp">     -6.46309004 </i>
    <i name="e_0_energy">     -6.46309004 </i>
   </energy>
  </scstep>
  <scstep>
   <time name="dav">    0.08    0.08</time>
   <time name="total">    0.80    0.82</time>
   <energy>
    <i name="e_fr_energy">     -6.46369632 </i>
    <i name="e_wo_entrp">     -6.46369632 </i>
    <i name="e_0_energy">     -6.46369632 </i>
   </energy>
  </scstep>
  <scstep>
   <time name="dav">    0.10    0.11</time>
   <time name="total">    0.82    0.86</time>
   <energy>
    <i name="e_fr_energy">     -6.46399937 </i>
    <i name="e_wo_entrp">     -6.46399937 </i>
    <i name="e_0_energy">     -6.46399937 </i>
   </energy>
  </scstep>
  <scstep>
   <time name="dav">    0.10    0.11</time>
   <time name="total">    0.48    0.55</time>
   <energy>
    <i name="alphaZ">      0.00121808 </i>
    <i name="ewald">     11.98409530 </i>
    <i name="hartreedc">    -28.92694913 </i>
    <i name="XCdc">      4.97217382 </i>
    <i name="pawpsdc">     18.60678571 </i>
    <i name="pawaedc">    -18.63988115 </i>
    <i name="eentropy">     -0.00000000 </i>
    <i name="bandstr">    -19.35305360 </i>
    <i name="atom">     24.89155077 </i>
    <i name="e_fr_energy">     -6.46406020 </i>
    <i name="e_wo_entrp">     -6.46406020 </i>
    <i name="e_0_energy">     -6.46406020 </i>
   </energy>
  </scstep>
  <structure>
   <crystal>
    <varray name="basis" >
     <v>      20.00000000       0.00000000       0.00000000 </v>
     <v>       0.00000000      20.00000000       0.00000000 </v>
     <v>       0.00000000       0.00000000      20.00000000 </v>
    </varray>
    <i name="volume">   8000.00000000 </i>
    <varray name="rec_basis" >
     <v>       0.05000000       0.00000000       0.00000000 </v>
     <v>       0.00000000       0.05000000       0.00000000 </v>
     <v>       0.00000000       0.00000000       0.05000000 </v>
    </varray>
   </crystal>
   <varray name="positions" >
    <v>      -0.00000000       0.00000000      -0.00490625 </v>
    <v>       0.00000000      -0.00000000       0.03990625 </v>
   </varray>
  </structure>
  <varray name="forces" >
   <v>      -0.00000000       0.00000000       3.10114895 </v>
   <v>       0.00000000      -0.00000000      -3.10114895 </v>
  </varray>
  <varray name="stress" >
   <v>      -0.06266612       0.00000000       0.00000000 </v>
   <v>       0.00000000      -0.06266612      -0.00000000 </v>
   <v>      -0.00000000       0.00000000      -0.63669708 </v>
  </varray>
  <energy>
   <i name="e_fr_energy">     -6.46406020 </i>
   <i name="e_wo_entrp">     -6.46406020 </i>
   <i name="e_0_energy">     -0.00000000 </i>
  </energy>
  <time name="totalsc">    5.50    5.88</time>
 </calculation>
 <calculation>
  <scstep>
   <time name="dav">    0.06    0.06</time>
   <time name="total">    0.79    0.79</time>
   <energy>
    <i name="alphaZ">      0.00121808 </i>
    <i name="ewald">     15.04042377 </i>
    <i name="hartreedc">    -30.07427337 </i>
    <i name="XCdc">      5.11187321 </i>
    <i name="pawpsdc">     18.61561814 </i>
    <i name="pawaedc">    -18.64870474 </i>
    <i name="eentropy">     -0.00000000 </i>
    <i name="bandstr">    -21.68149398 </i>
    <i name="atom">     24.89155077 </i>
    <i name="e_fr_energy">     -6.74378811 </i>
    <i name="e_wo_entrp">     -6.74378811 </i>
    <i name="e_0_energy">     -6.74378811 </i>
   </energy>
  </scstep>
  <scstep>
   <time name="dav">    0.11    0.11</time>
   <time name="total">    0.82    0.83</time>
   <energy>
    <i name="e_fr_energy">     -6.73095573 </i>
    <i name="e_wo_entrp">     -6.73095573 </i>
    <i name="e_0_energy">     -6.73095573 </i>
   </energy>
  </scstep>
  <scstep>
   <time name="dav">    0.08    0.08</time>
   <time name="total">    0.79    0.81</time>
   <energy>
    <i name="e_fr_energy">     -6.72452085 </i>
    <i name="e_wo_entrp">     -6.72452085 </i>
    <i name="e_0_energy">     -6.72452085 </i>
   </energy>
  </scstep>
  <scstep>
   <time name="dav">    0.08    0.08</time>
   <time name="total">    0.46    0.46</time>
   <energy>
    <i name="alphaZ">      0.00121808 </i>
    <i name="ewald">     15.04042377 </i>
    <i name="hartreedc">    -31.26943417 </i>
    <i name="XCdc">      5.28001570 </i>
    <i name="pawpsdc">     27.47892873 </i>
    <i name="pawaedc">    -27.52545038 </i>
    <i name="eentropy">     -0.00000000 </i>
    <i name="bandstr">    -20.62177856 </i>
    <i name="atom">     24.89155077 </i>
    <i name="e_fr_energy">     -6.72452605 </i>
    <i name="e_wo_entrp">     -6.72452605 </i>
    <i name="e_0_energy">     -6.72452605 </i>
   </energy>
  </scstep>
  <structure>
   <crystal>
    <varray name="basis" >
     <v>      20.00000000       0.00000000       0.00000000 </v>
     <v>       0.00000000      20.00000000       0.00000000 </v>
     <v>       0.00000000       0.00000000      20.00000000 </v>
    </varray>
    <i name="volume">   8000.00000000 </i>
    <varray name="rec_basis" >
     <v>       0.05000000       0.00000000       0.00000000 </v>
     <v>       0.00000000       0.05000000       0.00000000 </v>
     <v>       0.00000000       0.00000000       0.05000000 </v>
    </varray>
   </crystal>
   <varray name="positions" >
    <v>      -0.00000000       0.00000000      -0.00132430 </v>
    <v>       0.00000000      -0.00000000       0.03632430 </v>
   </varray>
  </structure>
  <varray name="forces" >
   <v>       0.00000000      -0.00000000       0.06604402 </v>
   <v>       0.00000000       0.00000000      -0.06604402 </v>
  </varray>
  <varray name="stress" >
   <v>      -0.06821800       0.00000000       0.00000000 </v>
   <v>      -0.00000000      -0.06821800       0.00000000 </v>
   <v>       0.00000000       0.00000000      -0.08161046 </v>
  </varray>
  <energy>
   <i name="e_fr_energy">     -6.72452605 </i>
   <i name="e_wo_entrp">     -6.72452605 </i>
   <i name="e_0_energy">     -0.00000000 </i>
  </energy>
  <time name="totalsc">    3.84    3.95</time>
 </calculation>
 <calculation>
  <scstep>
   <time name="dav">    0.08    0.08</time>
   <time name="total">    0.80    0.80</time>
   <energy>
    <i name="alphaZ">      0.00121808 </i>
    <i name="ewald">     15.08281908 </i>
    <i name="hartreedc">    -31.29226362 </i>
    <i name="XCdc">      5.28181477 </i>
    <i name="pawpsdc">     27.71506096 </i>
    <i name="pawaedc">    -27.76164024 </i>
    <i name="eentropy">     -0.00000000 </i>
    <i name="bandstr">    -20.64337442 </i>
    <i name="atom">     24.89155077 </i>
    <i name="e_fr_energy">     -6.72481461 </i>
    <i name="e_wo_entrp">     -6.72481461 </i>
    <i name="e_0_energy">     -6.72481461 </i>
   </energy>
  </scstep>
  <scstep>
   <time name="dav">    0.10    0.11</time>
   <time name="total">    0.48    0.49</time>
   <energy>
    <i name="alphaZ">      0.00121808 </i>
    <i name="ewald">     15.08281908 </i>
    <i name="hartreedc">    -31.30333215 </i>
    <i name="XCdc">      5.28319789 </i>
    <i name="pawpsdc">     27.75956339 </i>
    <i name="pawaedc">    -27.80623395 </i>
    <i name="eentropy">     -0.00000000 </i>
    <i name="bandstr">    -20.63363824 </i>
    <i name="atom">     24.89155077 </i>
    <i name="e_fr_energy">     -6.72485512 </i>
    <i name="e_wo_entrp">     -6.72485512 </i>
    <i name="e_0_energy">     -6.72485512 </i>
   </energy>
  </scstep>
  <structure>
   <crystal>
    <varray name="basis" >
     <v>      20.00000000       0.00000000       0.00000000 </v>
     <v>       0.00000000      20.00000000       0.00000000 </v>
     <v>       0.00000000       0.00000000      20.00000000 </v>
    </varray>
    <i name="volume">   8000.00000000 </i>
    <varray name="rec_basis" >
     <v>       0.05000000       0.00000000       0.00000000 </v>
     <v>       0.00000000       0.05000000       0.00000000 </v>
     <v>       0.00000000       0.00000000       0.05000000 </v>
    </varray>
   </crystal>
   <varray name="positions" >
    <v>      -0.00000000       0.00000000      -0.00128266 </v>
    <v>       0.00000000      -0.00000000       0.03628266 </v>
   </varray>
  </structure>
  <varray name="forces" >
   <v>      -0.00000000       0.00000000       0.01824802 </v>
   <v>       0.00000000      -0.00000000      -0.01824802 </v>
  </varray>
  <varray name="stress" >
   <v>      -0.06655803       0.00000000      -0.00000000 </v>
   <v>       0.00000000      -0.06655803       0.00000000 </v>
   <v>       0.00000000       0.00000000      -0.07358347 </v>
  </varray>
  <energy>
   <i name="e_fr_energy">     -6.72485512 </i>
   <i name="e_wo_entrp">     -6.72485512 </i>
   <i name="e_0_energy">     -0.00000000 </i>
  </energy>
  <time name="totalsc">    2.25    2.29</time>
  <eigenvalues>
   <array>
    <dimension dim="1">band</dimension>
    <dimension dim="2">kpoint</dimension>
    <dimension dim="3">spin</dimension>
    <field>eigene</field>
    <field>occ</field>
    <set>
     <set comment="spin 1">
      <set comment="kpoint 1">
       <r>  -10.3168    1.0000 </r>
       <r>   -0.1079    0.0000 </r>
       <r>    0.1363    0.0000 </r>
       <r>    0.2108    0.0000 </r>
       <r>    0.2370    0.0000 </r>
      </set>
     </set>
    </set>
   </array>
  </eigenvalues>
  <separator name="orbital magnetization" >
   <v name="MAGDIPOLOUT">      0.00000000      0.00000000      0.00000000</v>
  </separator>
  <dos>
   <i name="efermi">     -9.85203907 </i>
   <total>
    <array>
     <dimension dim="1">gridpoints</dimension>
     <dimension dim="2">spin</dimension>
     <field>energy</field>
     <field>total</field>
     <field>integrated</field>
     <set>
      <set comment="spin 1">
       <r>   -11.3168     0.0000     0.0000 </r>
       <r>   -11.2750     0.0000     0.0000 </r>
       <r>   -11.2331     0.0000     0.0000 </r>
       <r>   -11.1913     0.0000     0.0000 </r>
       <r>   -11.1494     0.0000     0.0000 </r>
       <r>   -11.1076     0.0000     0.0000 </r>
       <r>   -11.0657     0.0000     0.0000 </r>
       <r>   -11.0239     0.0000     0.0000 </r>
       <r>   -10.9820     0.0000     0.0000 </r>
       <r>   -10.9402     0.0000     0.0000 </r>
       <r>   -10.8984     0.0000     0.0000 </r>
       <r>   -10.8565     0.0000     0.0000 </r>
       <r>   -10.8147     0.0000     0.0000 </r>
       <r>   -10.7728     0.0000     0.0000 </r>
       <r>   -10.7310     0.0000     0.0000 </r>
       <r>   -10.6891     0.0000     0.0000 </r>
       <r>   -10.6473     0.0001     0.0000 </r>
       <r>   -10.6054     0.0010     0.0000 </r>
       <r>   -10.5636     0.0105     0.0005 </r>
       <r>   -10.5217     0.0782     0.0038 </r>
       <r>   -10.4799     0.4144     0.0211 </r>
       <r>   -10.4380     1.5616     0.0864 </r>
       <r>   -10.3962     4.1853     0.2616 </r>
       <r>   -10.3544     7.9800     0.5955 </r>
       <r>   -10.3125    10.8271     1.0486 </r>
       <r>   -10.2707    10.4545     1.4861 </r>
       <r>   -10.2288     7.1840     1.7867 </r>
       <r>   -10.1870     3.5128     1.9337 </r>
       <r>   -10.1451     1.2219     1.9848 </r>
       <r>   -10.1033     0.3023     1.9975 </r>
       <r>   -10.0614     0.0532     1.9997 </r>
       <r>   -10.0196     0.0066     2.0000 </r>
       <r>    -9.9777     0.0006     2.0000 </r>
       <r>    -9.9359     0.0000     2.0000 </r>
       <r>    -9.8940     0.0000     2.0000 </r>
       <r>    -9.8522     0.0000     2.0000 </r>
       <r>    -9.8104     0.0000     2.0000 </r>
       <r>    -9.7685     0.0000     2.0000 </r>
       <r>    -9.7267     0.0000     2.0000 </r>
       <r>    -9.6848     0.0000     2.0000 </r>
       <r>    -9.6430     0.0000     2.0000 </r>
       <r>    -9.6011     0.0000     2.0000 </r>
       <r>    -9.5593     0.0000     2.0000 </r>
       <r>    -9.5174     0.0000     2.0000 </r>
       <r>    -9.4756     0.0000     2.0000 </r>
       <r>    -9.4337     0.0000     2.0000 </r>
       <r>    -9.3919     0.0000     2.0000 </r>
       <r>    -9.3500     0.0000     2.0000 </r>
       <r>    -9.3082     0.0000     2.0000 </r>
       <r>    -9.2664     0.0000     2.0000 </r>
       <r>    -9.2245     0.0000     2.0000 </r>
       <r>    -9.1827     0.0000     2.0000 </r>
       <r>    -9.1408     0.0000     2.0000 </r>
       <r>    -9.0990     0.0000     2.0000 </r>
       <r>    -9.0571     0.0000     2.0000 </r>
       <r>    -9.0153     0.0000     2.0000 </r>
       <r>    -8.9734     0.0000     2.0000 </r>
       <r>    -8.9316     0.0000     2.0000 </r>
       <r>    -8.8897     0.0000     2.0000 </r>
       <r>    -8.8479     0.0000     2.0000 </r>
       <r>    -8.8060     0.0000     2.0000 </r>
       <r>    -8.7642     0.0000     2.0000 </r>
       <r>    -8.7224     0.0000     2.0000 </r>
       <r>    -8.6805     0.0000     2.0000 </r>
       <r>    -8.6387     0.0000     2.0000 </r>
       <r>    -8.5968     0.0000     2.0000 </r>
       <r>    -8.5550     0.0000     2.0000 </r>
       <r>    -8.5131     0.0000     2.0000 </r>
       <r>    -8.4713     0.0000     2.0000 </r>
       <r>    -8.4294     0.0000     2.0000 </r>
       <r>    -8.3876     0.0000     2.0000 </r>
       <r>    -8.3457     0.0000     2.0000 </r>
       <r>    -8.3039     0.0000     2.0000 </r>
       <r>    -8.2620     0.0000     2.0000 </r>
       <r>    -8.2202     0.0000     2.0000 </r>
       <r>    -8.1784     0.0000     2.0000 </r>
       <r>    -8.1365     0.0000     2.0000 </r>
       <r>    -8.0947     0.0000     2.0000 </r>
       <r>    -8.0528     0.0000     2.0000 </r>
       <r>    -8.0110     0.0000     2.0000 </r>
       <r>    -7.9691     0.0000     2.0000 </r>
       <r>    -7.9273     0.0000     2.0000 </r>
       <r>    -7.8854     0.0000     2.0000 </r>
       <r>    -7.8436     0.0000     2.0000 </r>
       <r>    -7.8017     0.0000     2.0000 </r>
       <r>    -7.7599     0.0000     2.0000 </r>
       <r>    -7.7180     0.0000     2.0000 </r>
       <r>    -7.6762     0.0000     2.0000 </r>
       <r>    -7.6344     0.0000     2.0000 </r>
       <r>    -7.5925     0.0000     2.0000 </r>
       <r>    -7.5507     0.0000     2.0000 </r>
       <r>    -7.5088     0.0000     2.0000 </r>
       <r>    -7.4670     0.0000     2.0000 </r>
       <r>    -7.4251     0.0000     2.0000 </r>
       <r>    -7.3833     0.0000     2.0000 </r>
       <r>    -7.3414     0.0000     2.0000 </r>
       <r>    -7.2996     0.0000     2.0000 </r>
       <r>    -7.2577     0.0000     2.0000 </r>
       <r>    -7.2159     0.0000     2.0000 </r>
       <r>    -7.1740     0.0000     2.0000 </r>
       <r>    -7.1322     0.0000     2.0000 </r>
       <r>    -7.0904     0.0000     2.0000 </r>
       <r>    -7.0485     0.0000     2.0000 </r>
       <r>    -7.0067     0.0000     2.0000 </r>
       <r>    -6.9648     0.0000     2.0000 </r>
       <r>    -6.9230     0.0000     2.0000 </r>
       <r>    -6.8811     0.0000     2.0000 </r>
       <r>    -6.8393     0.0000     2.0000 </r>
       <r>    -6.7974     0.0000     2.0000 </r>
       <r>    -6.7556     0.0000     2.0000 </r>
       <r>    -6.7137     0.0000     2.0000 </r>
       <r>    -6.6719     0.0000     2.0000 </r>
       <r>    -6.6300     0.0000     2.0000 </r>
       <r>    -6.5882     0.0000     2.0000 </r>
       <r>    -6.5464     0.0000     2.0000 </r>
       <r>    -6.5045     0.0000     2.0000 </r>
       <r>    -6.4627     0.0000     2.0000 </r>
       <r>    -6.4208     0.0000     2.0000 </r>
       <r>    -6.3790     0.0000     2.0000 </r>
       <r>    -6.3371     0.0000     2.0000 </r>
       <r>    -6.2953     0.0000     2.0000 </r>
       <r>    -6.2534     0.0000     2.0000 </r>
       <r>    -6.2116     0.0000     2.0000 </r>
       <r>    -6.1697     0.0000     2.0000 </r>
       <r>    -6.1279     0.0000     2.0000 </r>
       <r>    -6.0860     0.0000     2.0000 </r>
       <r>    -6.0442     0.0000     2.0000 </r>
       <r>    -6.0024     0.0000     2.0000 </r>
       <r>    -5.9605     0.0000     2.0000 </r>
       <r>    -5.9187     0.0000     2.0000 </r>
       <r>    -5.8768     0.0000     2.0000 </r>
       <r>    -5.8350     0.0000     2.0000 </r>
       <r>    -5.7931     0.0000     2.0000 </r>
       <r>    -5.7513     0.0000     2.0000 </r>
       <r>    -5.7094     0.0000     2.0000 </r>
       <r>    -5.6676     0.0000     2.0000 </r>
       <r>    -5.6257     0.0000     2.0000 </r>
       <r>    -5.5839     0.0000     2.0000 </r>
       <r>    -5.5420     0.0000     2.0000 </r>
       <r>    -5.5002     0.0000     2.0000 </r>
       <r>    -5.4584     0.0000     2.0000 </r>
       <r>    -5.4165     0.0000     2.0000 </r>
       <r>    -5.3747     0.0000     2.0000 </r>
       <r>    -5.3328     0.0000     2.0000 </r>
       <r>    -5.2910     0.0000     2.0000 </r>
       <r>    -5.2491     0.0000     2.0000 </r>
       <r>    -5.2073     0.0000     2.0000 </r>
       <r>    -5.1654     0.0000     2.0000 </r>
       <r>    -5.1236     0.0000     2.0000 </r>
       <r>    -5.0817     0.0000     2.0000 </r>
       <r>    -5.0399     0.0000     2.0000 </r>
       <r>    -4.9980     0.0000     2.0000 </r>
       <r>    -4.9562     0.0000     2.0000 </r>
       <r>    -4.9144     0.0000     2.0000 </r>
       <r>    -4.8725     0.0000     2.0000 </r>
       <r>    -4.8307     0.0000     2.0000 </r>
       <r>    -4.7888     0.0000     2.0000 </r>
       <r>    -4.7470     0.0000     2.0000 </r>
       <r>    -4.7051     0.0000     2.0000 </r>
       <r>    -4.6633     0.0000     2.0000 </r>
       <r>    -4.6214     0.0000     2.0000 </r>
       <r>    -4.5796     0.0000     2.0000 </r>
       <r>    -4.5377     0.0000     2.0000 </r>
       <r>    -4.4959     0.0000     2.0000 </r>
       <r>    -4.4540     0.0000     2.0000 </r>
       <r>    -4.4122     0.0000     2.0000 </r>
       <r>    -4.3704     0.0000     2.0000 </r>
       <r>    -4.3285     0.0000     2.0000 </r>
       <r>    -4.2867     0.0000     2.0000 </r>
       <r>    -4.2448     0.0000     2.0000 </r>
       <r>    -4.2030     0.0000     2.0000 </r>
       <r>    -4.1611     0.0000     2.0000 </r>
       <r>    -4.1193     0.0000     2.0000 </r>
       <r>    -4.0774     0.0000     2.0000 </r>
       <r>    -4.0356     0.0000     2.0000 </r>
       <r>    -3.9937     0.0000     2.0000 </r>
       <r>    -3.9519     0.0000     2.0000 </r>
       <r>    -3.9100     0.0000     2.0000 </r>
       <r>    -3.8682     0.0000     2.0000 </r>
       <r>    -3.8264     0.0000     2.0000 </r>
       <r>    -3.7845     0.0000     2.0000 </r>
       <r>    -3.7427     0.0000     2.0000 </r>
       <r>    -3.7008     0.0000     2.0000 </r>
       <r>    -3.6590     0.0000     2.0000 </r>
       <r>    -3.6171     0.0000     2.0000 </r>
       <r>    -3.5753     0.0000     2.0000 </r>
       <r>    -3.5334     0.0000     2.0000 </r>
       <r>    -3.4916     0.0000     2.0000 </r>
       <r>    -3.4497     0.0000     2.0000 </r>
       <r>    -3.4079     0.0000     2.0000 </r>
       <r>    -3.3660     0.0000     2.0000 </r>
       <r>    -3.3242     0.0000     2.0000 </r>
       <r>    -3.2824     0.0000     2.0000 </r>
       <r>    -3.2405     0.0000     2.0000 </r>
       <r>    -3.1987     0.0000     2.0000 </r>
       <r>    -3.1568     0.0000     2.0000 </r>
       <r>    -3.1150     0.0000     2.0000 </r>
       <r>    -3.0731     0.0000     2.0000 </r>
       <r>    -3.0313     0.0000     2.0000 </r>
       <r>    -2.9894     0.0000     2.0000 </r>
       <r>    -2.9476     0.0000     2.0000 </r>
       <r>    -2.9057     0.0000     2.0000 </r>
       <r>    -2.8639     0.0000     2.0000 </r>
       <r>    -2.8220     0.0000     2.0000 </r>
       <r>    -2.7802     0.0000     2.0000 </r>
       <r>    -2.7384     0.0000     2.0000 </r>
       <r>    -2.6965     0.0000     2.0000 </r>
       <r>    -2.6547     0.0000     2.0000 </r>
       <r>    -2.6128     0.0000     2.0000 </r>
       <r>    -2.5710     0.0000     2.0000 </r>
       <r>    -2.5291     0.0000     2.0000 </r>
       <r>    -2.4873     0.0000     2.0000 </r>
       <r>    -2.4454     0.0000     2.0000 </r>
       <r>    -2.4036     0.0000     2.0000 </r>
       <r>    -2.3617     0.0000     2.0000 </r>
       <r>    -2.3199     0.0000     2.0000 </r>
       <r>    -2.2780     0.0000     2.0000 </r>
       <r>    -2.2362     0.0000     2.0000 </r>
       <r>    -2.1944     0.0000     2.0000 </r>
       <r>    -2.1525     0.0000     2.0000 </r>
       <r>    -2.1107     0.0000     2.0000 </r>
       <r>    -2.0688     0.0000     2.0000 </r>
       <r>    -2.0270     0.0000     2.0000 </r>
       <r>    -1.9851     0.0000     2.0000 </r>
       <r>    -1.9433     0.0000     2.0000 </r>
       <r>    -1.9014     0.0000     2.0000 </r>
       <r>    -1.8596     0.0000     2.0000 </r>
       <r>    -1.8177     0.0000     2.0000 </r>
       <r>    -1.7759     0.0000     2.0000 </r>
       <r>    -1.7340     0.0000     2.0000 </r>
       <r>    -1.6922     0.0000     2.0000 </r>
       <r>    -1.6503     0.0000     2.0000 </r>
       <r>    -1.6085     0.0000     2.0000 </r>
       <r>    -1.5667     0.0000     2.0000 </r>
       <r>    -1.5248     0.0000     2.0000 </r>
       <r>    -1.4830     0.0000     2.0000 </r>
       <r>    -1.4411     0.0000     2.0000 </r>
       <r>    -1.3993     0.0000     2.0000 </r>
       <r>    -1.3574     0.0000     2.0000 </r>
       <r>    -1.3156     0.0000     2.0000 </r>
       <r>    -1.2737     0.0000     2.0000 </r>
       <r>    -1.2319     0.0000     2.0000 </r>
       <r>    -1.1900     0.0000     2.0000 </r>
       <r>    -1.1482     0.0000     2.0000 </r>
       <r>    -1.1063     0.0000     2.0000 </r>
       <r>    -1.0645     0.0000     2.0000 </r>
       <r>    -1.0227     0.0000     2.0000 </r>
       <r>    -0.9808     0.0000     2.0000 </r>
       <r>    -0.9390     0.0000     2.0000 </r>
       <r>    -0.8971     0.0000     2.0000 </r>
       <r>    -0.8553     0.0000     2.0000 </r>
       <r>    -0.8134     0.0000     2.0000 </r>
       <r>    -0.7716     0.0000     2.0000 </r>
       <r>    -0.7297     0.0000     2.0000 </r>
       <r>    -0.6879     0.0000     2.0000 </r>
       <r>    -0.6460     0.0000     2.0000 </r>
       <r>    -0.6042     0.0000     2.0000 </r>
       <r>    -0.5623     0.0000     2.0000 </r>
       <r>    -0.5205     0.0000     2.0000 </r>
       <r>    -0.4787     0.0000     2.0000 </r>
       <r>    -0.4368     0.0001     2.0000 </r>
       <r>    -0.3950     0.0011     2.0000 </r>
       <r>    -0.3531     0.0114     2.0005 </r>
       <r>    -0.3113     0.0837     2.0040 </r>
       <r>    -0.2694     0.4380     2.0224 </r>
       <r>    -0.2276     1.6297     2.0906 </r>
       <r>    -0.1857     4.3130     2.2710 </r>
       <r>    -0.1439     8.1217     2.6109 </r>
       <r>    -0.1020    10.8954     3.0668 </r>
       <r>    -0.0602    10.4887     3.5057 </r>
       <r>    -0.0183     7.6275     3.8249 </r>
       <r>     0.0235     5.5750     4.0582 </r>
       <r>     0.0653     7.1259     4.3564 </r>
       <r>     0.1072    12.6966     4.8877 </r>
       <r>     0.1490    20.3380     5.7388 </r>
       <r>     0.1909    26.6103     6.8523 </r>
       <r>     0.2327    27.9654     8.0226 </r>
       <r>     0.2746    23.0476     8.9870 </r>
       <r>     0.3164    14.4663     9.5924 </r>
       <r>     0.3583     6.7504     9.8749 </r>
       <r>     0.4001     2.3046     9.9713 </r>
       <r>     0.4420     0.5701     9.9952 </r>
       <r>     0.4838     0.1016     9.9994 </r>
       <r>     0.5257     0.0130     9.9999 </r>
       <r>     0.5675     0.0012    10.0000 </r>
       <r>     0.6093     0.0001    10.0000 </r>
       <r>     0.6512     0.0000    10.0000 </r>
       <r>     0.6930     0.0000    10.0000 </r>
       <r>     0.7349     0.0000    10.0000 </r>
       <r>     0.7767     0.0000    10.0000 </r>
       <r>     0.8186     0.0000    10.0000 </r>
       <r>     0.8604     0.0000    10.0000 </r>
       <r>     0.9023     0.0000    10.0000 </r>
       <r>     0.9441     0.0000    10.0000 </r>
       <r>     0.9860     0.0000    10.0000 </r>
       <r>     1.0278     0.0000    10.0000 </r>
       <r>     1.0697     0.0000    10.0000 </r>
       <r>     1.1115     0.0000    10.0000 </r>
       <r>     1.1533     0.0000    10.0000 </r>
       <r>     1.1952     0.0000    10.0000 </r>
       <r>     1.2370     0.0000    10.0000 </r>
      </set>
     </set>
    </array>
   </total>
  </dos>
 </calculation>
 <structure name="finalpos" >
  <crystal>
   <varray name="basis" >
    <v>      20.00000000       0.00000000       0.00000000 </v>
    <v>       0.00000000      20.00000000       0.00000000 </v>
    <v>       0.00000000       0.00000000      20.00000000 </v>
   </varray>
   <i name="volume">   8000.00000000 </i>
   <varray name="rec_basis" >
    <v>       0.05000000       0.00000000       0.00000000 </v>
    <v>       0.00000000       0.05000000       0.00000000 </v>
    <v>       0.00000000       0.00000000       0.05000000 </v>
   </varray>
  </crystal>
  <varray name="positions" >
   <v>      -0.00000000       0.00000000      -0.00128266 </v>
   <v>       0.00000000      -0.00000000       0.03628266 </v>
  </varray>
 </structure>
</modeling>
