unknown system                          
           1
    20.000000    0.000000    0.000000
     0.000000   20.000000    0.000000
     0.000000    0.000000   20.000000
   H 
   2
Direct configuration=     1
   0.00000000  0.00000000  0.00000000
   0.00000000  0.00000000  0.03500000
Direct configuration=     2
  -0.00000000  0.00000000 -0.00490625
   0.00000000 -0.00000000  0.03990625
Direct configuration=     3
  -0.00000000  0.00000000 -0.00132430
   0.00000000 -0.00000000  0.03632430
Direct configuration=     4
  -0.00000000  0.00000000 -0.00128266
   0.00000000 -0.00000000  0.03628266
