   2   2   0   0
  0.4000000E+04  0.2000000E-08  0.2000000E-08  0.2000000E-08  0.5000000E-15
  1.000000000000000E-004
  CAR 
 unknown system                          
      1.23698518    -11.33438223  301     -9.86755901      1.00000000
    -11.334  0.0000E+00  0.0000E+00
    -11.292  0.0000E+00  0.0000E+00
    -11.251  0.0000E+00  0.0000E+00
    -11.209  0.0000E+00  0.0000E+00
    -11.167  0.0000E+00  0.0000E+00
    -11.125  0.0000E+00  0.0000E+00
    -11.083  0.0000E+00  0.0000E+00
    -11.041  0.0000E+00  0.0000E+00
    -10.999  0.0000E+00  0.0000E+00
    -10.957  0.0000E+00  0.0000E+00
    -10.915  0.2120E-16  0.8882E-18
    -10.873  0.2342E-14  0.9903E-16
    -10.832  0.1938E-12  0.8220E-14
    -10.790  0.1135E-10  0.4840E-12
    -10.748  0.4707E-09  0.2021E-10
    -10.706  0.1381E-07  0.5991E-09
    -10.664  0.2872E-06  0.1264E-07
    -10.622  0.4233E-05  0.1900E-06
    -10.580  0.4423E-04  0.2044E-05
    -10.538  0.3280E-03  0.1579E-04
    -10.496  0.1727E-02  0.8815E-04
    -10.454  0.6456E-02  0.3587E-03
    -10.412  0.1715E-01  0.1078E-02
    -10.371  0.3239E-01  0.2435E-02
    -10.329  0.4349E-01  0.4257E-02
    -10.287  0.4152E-01  0.5997E-02
    -10.245  0.2818E-01  0.7178E-02
    -10.203  0.1360E-01  0.7748E-02
    -10.161  0.4663E-02  0.7943E-02
    -10.119  0.1136E-02  0.7991E-02
    -10.077  0.1966E-03  0.7999E-02
    -10.035  0.2414E-04  0.8000E-02
     -9.993  0.2104E-05  0.8000E-02
     -9.952  0.1300E-06  0.8000E-02
     -9.910  0.5692E-08  0.8000E-02
     -9.868  0.1765E-09  0.8000E-02
     -9.826  0.3875E-11  0.8000E-02
     -9.784  0.6019E-13  0.8000E-02
     -9.742  0.6782E-15  0.8000E-02
     -9.700  0.0000E+00  0.8000E-02
     -9.658  0.0000E+00  0.8000E-02
     -9.616  0.0000E+00  0.8000E-02
     -9.574  0.0000E+00  0.8000E-02
     -9.532  0.0000E+00  0.8000E-02
     -9.491  0.0000E+00  0.8000E-02
     -9.449  0.0000E+00  0.8000E-02
     -9.407  0.0000E+00  0.8000E-02
     -9.365  0.0000E+00  0.8000E-02
     -9.323  0.0000E+00  0.8000E-02
     -9.281  0.0000E+00  0.8000E-02
     -9.239  0.0000E+00  0.8000E-02
     -9.197  0.0000E+00  0.8000E-02
     -9.155  0.0000E+00  0.8000E-02
     -9.113  0.0000E+00  0.8000E-02
     -9.072  0.0000E+00  0.8000E-02
     -9.030  0.0000E+00  0.8000E-02
     -8.988  0.0000E+00  0.8000E-02
     -8.946  0.0000E+00  0.8000E-02
     -8.904  0.0000E+00  0.8000E-02
     -8.862  0.0000E+00  0.8000E-02
     -8.820  0.0000E+00  0.8000E-02
     -8.778  0.0000E+00  0.8000E-02
     -8.736  0.0000E+00  0.8000E-02
     -8.694  0.0000E+00  0.8000E-02
     -8.652  0.0000E+00  0.8000E-02
     -8.611  0.0000E+00  0.8000E-02
     -8.569  0.0000E+00  0.8000E-02
     -8.527  0.0000E+00  0.8000E-02
     -8.485  0.0000E+00  0.8000E-02
     -8.443  0.0000E+00  0.8000E-02
     -8.401  0.0000E+00  0.8000E-02
     -8.359  0.0000E+00  0.8000E-02
     -8.317  0.0000E+00  0.8000E-02
     -8.275  0.0000E+00  0.8000E-02
     -8.233  0.0000E+00  0.8000E-02
     -8.192  0.0000E+00  0.8000E-02
     -8.150  0.0000E+00  0.8000E-02
     -8.108  0.0000E+00  0.8000E-02
     -8.066  0.0000E+00  0.8000E-02
     -8.024  0.0000E+00  0.8000E-02
     -7.982  0.0000E+00  0.8000E-02
     -7.940  0.0000E+00  0.8000E-02
     -7.898  0.0000E+00  0.8000E-02
     -7.856  0.0000E+00  0.8000E-02
     -7.814  0.0000E+00  0.8000E-02
     -7.772  0.0000E+00  0.8000E-02
     -7.731  0.0000E+00  0.8000E-02
     -7.689  0.0000E+00  0.8000E-02
     -7.647  0.0000E+00  0.8000E-02
     -7.605  0.0000E+00  0.8000E-02
     -7.563  0.0000E+00  0.8000E-02
     -7.521  0.0000E+00  0.8000E-02
     -7.479  0.0000E+00  0.8000E-02
     -7.437  0.0000E+00  0.8000E-02
     -7.395  0.0000E+00  0.8000E-02
     -7.353  0.0000E+00  0.8000E-02
     -7.312  0.0000E+00  0.8000E-02
     -7.270  0.0000E+00  0.8000E-02
     -7.228  0.0000E+00  0.8000E-02
     -7.186  0.0000E+00  0.8000E-02
     -7.144  0.0000E+00  0.8000E-02
     -7.102  0.0000E+00  0.8000E-02
     -7.060  0.0000E+00  0.8000E-02
     -7.018  0.0000E+00  0.8000E-02
     -6.976  0.0000E+00  0.8000E-02
     -6.934  0.0000E+00  0.8000E-02
     -6.892  0.0000E+00  0.8000E-02
     -6.851  0.0000E+00  0.8000E-02
     -6.809  0.0000E+00  0.8000E-02
     -6.767  0.0000E+00  0.8000E-02
     -6.725  0.0000E+00  0.8000E-02
     -6.683  0.0000E+00  0.8000E-02
     -6.641  0.0000E+00  0.8000E-02
     -6.599  0.0000E+00  0.8000E-02
     -6.557  0.0000E+00  0.8000E-02
     -6.515  0.0000E+00  0.8000E-02
     -6.473  0.0000E+00  0.8000E-02
     -6.432  0.0000E+00  0.8000E-02
     -6.390  0.0000E+00  0.8000E-02
     -6.348  0.0000E+00  0.8000E-02
     -6.306  0.0000E+00  0.8000E-02
     -6.264  0.0000E+00  0.8000E-02
     -6.222  0.0000E+00  0.8000E-02
     -6.180  0.0000E+00  0.8000E-02
     -6.138  0.0000E+00  0.8000E-02
     -6.096  0.0000E+00  0.8000E-02
     -6.054  0.0000E+00  0.8000E-02
     -6.013  0.0000E+00  0.8000E-02
     -5.971  0.0000E+00  0.8000E-02
     -5.929  0.0000E+00  0.8000E-02
     -5.887  0.0000E+00  0.8000E-02
     -5.845  0.0000E+00  0.8000E-02
     -5.803  0.0000E+00  0.8000E-02
     -5.761  0.0000E+00  0.8000E-02
     -5.719  0.0000E+00  0.8000E-02
     -5.677  0.0000E+00  0.8000E-02
     -5.635  0.0000E+00  0.8000E-02
     -5.593  0.0000E+00  0.8000E-02
     -5.552  0.0000E+00  0.8000E-02
     -5.510  0.0000E+00  0.8000E-02
     -5.468  0.0000E+00  0.8000E-02
     -5.426  0.0000E+00  0.8000E-02
     -5.384  0.0000E+00  0.8000E-02
     -5.342  0.0000E+00  0.8000E-02
     -5.300  0.0000E+00  0.8000E-02
     -5.258  0.0000E+00  0.8000E-02
     -5.216  0.0000E+00  0.8000E-02
     -5.174  0.0000E+00  0.8000E-02
     -5.133  0.0000E+00  0.8000E-02
     -5.091  0.0000E+00  0.8000E-02
     -5.049  0.0000E+00  0.8000E-02
     -5.007  0.0000E+00  0.8000E-02
     -4.965  0.0000E+00  0.8000E-02
     -4.923  0.0000E+00  0.8000E-02
     -4.881  0.0000E+00  0.8000E-02
     -4.839  0.0000E+00  0.8000E-02
     -4.797  0.0000E+00  0.8000E-02
     -4.755  0.0000E+00  0.8000E-02
     -4.713  0.0000E+00  0.8000E-02
     -4.672  0.0000E+00  0.8000E-02
     -4.630  0.0000E+00  0.8000E-02
     -4.588  0.0000E+00  0.8000E-02
     -4.546  0.0000E+00  0.8000E-02
     -4.504  0.0000E+00  0.8000E-02
     -4.462  0.0000E+00  0.8000E-02
     -4.420  0.0000E+00  0.8000E-02
     -4.378  0.0000E+00  0.8000E-02
     -4.336  0.0000E+00  0.8000E-02
     -4.294  0.0000E+00  0.8000E-02
     -4.253  0.0000E+00  0.8000E-02
     -4.211  0.0000E+00  0.8000E-02
     -4.169  0.0000E+00  0.8000E-02
     -4.127  0.0000E+00  0.8000E-02
     -4.085  0.0000E+00  0.8000E-02
     -4.043  0.0000E+00  0.8000E-02
     -4.001  0.0000E+00  0.8000E-02
     -3.959  0.0000E+00  0.8000E-02
     -3.917  0.0000E+00  0.8000E-02
     -3.875  0.0000E+00  0.8000E-02
     -3.833  0.0000E+00  0.8000E-02
     -3.792  0.0000E+00  0.8000E-02
     -3.750  0.0000E+00  0.8000E-02
     -3.708  0.0000E+00  0.8000E-02
     -3.666  0.0000E+00  0.8000E-02
     -3.624  0.0000E+00  0.8000E-02
     -3.582  0.0000E+00  0.8000E-02
     -3.540  0.0000E+00  0.8000E-02
     -3.498  0.0000E+00  0.8000E-02
     -3.456  0.0000E+00  0.8000E-02
     -3.414  0.0000E+00  0.8000E-02
     -3.373  0.0000E+00  0.8000E-02
     -3.331  0.0000E+00  0.8000E-02
     -3.289  0.0000E+00  0.8000E-02
     -3.247  0.0000E+00  0.8000E-02
     -3.205  0.0000E+00  0.8000E-02
     -3.163  0.0000E+00  0.8000E-02
     -3.121  0.0000E+00  0.8000E-02
     -3.079  0.0000E+00  0.8000E-02
     -3.037  0.0000E+00  0.8000E-02
     -2.995  0.0000E+00  0.8000E-02
     -2.953  0.0000E+00  0.8000E-02
     -2.912  0.0000E+00  0.8000E-02
     -2.870  0.0000E+00  0.8000E-02
     -2.828  0.0000E+00  0.8000E-02
     -2.786  0.0000E+00  0.8000E-02
     -2.744  0.0000E+00  0.8000E-02
     -2.702  0.0000E+00  0.8000E-02
     -2.660  0.0000E+00  0.8000E-02
     -2.618  0.0000E+00  0.8000E-02
     -2.576  0.0000E+00  0.8000E-02
     -2.534  0.0000E+00  0.8000E-02
     -2.493  0.0000E+00  0.8000E-02
     -2.451  0.0000E+00  0.8000E-02
     -2.409  0.0000E+00  0.8000E-02
     -2.367  0.0000E+00  0.8000E-02
     -2.325  0.0000E+00  0.8000E-02
     -2.283  0.0000E+00  0.8000E-02
     -2.241  0.0000E+00  0.8000E-02
     -2.199  0.0000E+00  0.8000E-02
     -2.157  0.0000E+00  0.8000E-02
     -2.115  0.0000E+00  0.8000E-02
     -2.073  0.0000E+00  0.8000E-02
     -2.032  0.0000E+00  0.8000E-02
     -1.990  0.0000E+00  0.8000E-02
     -1.948  0.0000E+00  0.8000E-02
     -1.906  0.0000E+00  0.8000E-02
     -1.864  0.0000E+00  0.8000E-02
     -1.822  0.0000E+00  0.8000E-02
     -1.780  0.0000E+00  0.8000E-02
     -1.738  0.0000E+00  0.8000E-02
     -1.696  0.0000E+00  0.8000E-02
     -1.654  0.0000E+00  0.8000E-02
     -1.613  0.0000E+00  0.8000E-02
     -1.571  0.0000E+00  0.8000E-02
     -1.529  0.0000E+00  0.8000E-02
     -1.487  0.0000E+00  0.8000E-02
     -1.445  0.0000E+00  0.8000E-02
     -1.403  0.0000E+00  0.8000E-02
     -1.361  0.0000E+00  0.8000E-02
     -1.319  0.0000E+00  0.8000E-02
     -1.277  0.0000E+00  0.8000E-02
     -1.235  0.0000E+00  0.8000E-02
     -1.193  0.0000E+00  0.8000E-02
     -1.152  0.0000E+00  0.8000E-02
     -1.110  0.0000E+00  0.8000E-02
     -1.068  0.0000E+00  0.8000E-02
     -1.026  0.0000E+00  0.8000E-02
     -0.984  0.0000E+00  0.8000E-02
     -0.942  0.0000E+00  0.8000E-02
     -0.900  0.0000E+00  0.8000E-02
     -0.858  0.0000E+00  0.8000E-02
     -0.816  0.0000E+00  0.8000E-02
     -0.774  0.0000E+00  0.8000E-02
     -0.733  0.0000E+00  0.8000E-02
     -0.691  0.2120E-16  0.8000E-02
     -0.649  0.1929E-14  0.8000E-02
     -0.607  0.1624E-12  0.8000E-02
     -0.565  0.9651E-11  0.8000E-02
     -0.523  0.4059E-09  0.8000E-02
     -0.481  0.1209E-07  0.8000E-02
     -0.439  0.2549E-06  0.8000E-02
     -0.397  0.3811E-05  0.8000E-02
     -0.355  0.4040E-04  0.8002E-02
     -0.313  0.3038E-03  0.8015E-02
     -0.272  0.1622E-02  0.8083E-02
     -0.230  0.6154E-02  0.8340E-02
     -0.188  0.1658E-01  0.9035E-02
     -0.146  0.3177E-01  0.1037E-01
     -0.104  0.4331E-01  0.1218E-01
     -0.062  0.4229E-01  0.1395E-01
     -0.020  0.3097E-01  0.1525E-01
      0.022  0.2220E-01  0.1618E-01
      0.064  0.2761E-01  0.1734E-01
      0.106  0.4950E-01  0.1941E-01
      0.147  0.8043E-01  0.2278E-01
      0.189  0.1064E+00  0.2724E-01
      0.231  0.1125E+00  0.3196E-01
      0.273  0.9323E-01  0.3586E-01
      0.315  0.5881E-01  0.3833E-01
      0.357  0.2760E-01  0.3948E-01
      0.399  0.9478E-02  0.3988E-01
      0.441  0.2359E-02  0.3998E-01
      0.483  0.4230E-03  0.4000E-01
      0.525  0.5441E-04  0.4000E-01
      0.567  0.5009E-05  0.4000E-01
      0.608  0.3293E-06  0.4000E-01
      0.650  0.1543E-07  0.4000E-01
      0.692  0.5147E-09  0.4000E-01
      0.734  0.1220E-10  0.4000E-01
      0.776  0.2054E-12  0.4000E-01
      0.818  0.2480E-14  0.4000E-01
      0.860  0.2120E-16  0.4000E-01
      0.902  0.0000E+00  0.4000E-01
      0.944  0.0000E+00  0.4000E-01
      0.986  0.0000E+00  0.4000E-01
      1.027  0.0000E+00  0.4000E-01
      1.069  0.0000E+00  0.4000E-01
      1.111  0.0000E+00  0.4000E-01
      1.153  0.0000E+00  0.4000E-01
      1.195  0.0000E+00  0.4000E-01
      1.237  0.0000E+00  0.4000E-01
