       N       E                     dE             d eps       ncg     rms          rms(c)
DAV:   1    -0.338684408038E+01   -0.33868E+01   -0.23445E+02    10   0.115E+02
DAV:   2    -0.743169272422E+01   -0.40448E+01   -0.40448E+01    10   0.369E+01
DAV:   3    -0.751039554690E+01   -0.78703E-01   -0.78703E-01    20   0.780E+00
DAV:   4    -0.751040917165E+01   -0.13625E-04   -0.13625E-04    15   0.104E-01
DAV:   5    -0.751040917479E+01   -0.31363E-08   -0.31366E-08    10   0.151E-03    0.491E+00
DAV:   6    -0.698635496481E+01    0.52405E+00   -0.26499E-01    10   0.241E+00    0.267E+00
DAV:   7    -0.670545584251E+01    0.28090E+00   -0.62279E-01    15   0.376E+00    0.329E-01
DAV:   8    -0.670950800760E+01   -0.40522E-02   -0.69377E-03    10   0.340E-01    0.309E-01
DAV:   9    -0.670512179060E+01    0.43862E-02   -0.64894E-03    15   0.363E-01    0.526E-02
DAV:  10    -0.670667470877E+01   -0.15529E-02   -0.10769E-03    15   0.139E-01    0.159E-02
DAV:  11    -0.670726043290E+01   -0.58572E-03   -0.78694E-05    20   0.355E-02    0.200E-02
DAV:  12    -0.670917037140E+01   -0.19099E-02   -0.46462E-04    10   0.101E-01    0.779E-03
DAV:  13    -0.670947775160E+01   -0.30738E-03   -0.24645E-05    20   0.224E-02    0.197E-03
DAV:  14    -0.670961589779E+01   -0.13815E-03   -0.11156E-05    10   0.139E-02    0.191E-03
DAV:  15    -0.670967925543E+01   -0.63358E-04   -0.12549E-06    20   0.517E-03
   1 F= -.67096793E+01 E0= -.67096793E+01  d E =-.670968E+01
       N       E                     dE             d eps       ncg     rms          rms(c)
DAV:   1    -0.652432139580E+01    0.18529E+00   -0.11174E+01    10   0.251E+01    0.155E+00
DAV:   2    -0.649159528505E+01    0.32726E-01   -0.94776E-02    15   0.204E+00    0.790E-01
DAV:   3    -0.648233896086E+01    0.92563E-02   -0.27206E-02    15   0.682E-01    0.119E-01
DAV:   4    -0.648275564225E+01   -0.41668E-03   -0.63193E-04    20   0.122E-01    0.373E-02
DAV:   5    -0.648303071048E+01   -0.27507E-03   -0.13034E-04    20   0.568E-02    0.528E-03
DAV:   6    -0.648309787070E+01   -0.67160E-04   -0.12738E-05    20   0.153E-02
   2 F= -.64830979E+01 E0= -.64830979E+01  d E =0.226581E+00
       N       E                     dE             d eps       ncg     rms          rms(c)
DAV:   1    -0.677866668782E+01   -0.29564E+00   -0.56152E+00    10   0.170E+01    0.995E-01
DAV:   2    -0.676546762891E+01    0.13199E-01   -0.34638E-02    20   0.142E+00    0.602E-01
DAV:   3    -0.675858000330E+01    0.68876E-02   -0.27197E-02    15   0.702E-01    0.897E-02
DAV:   4    -0.675859189079E+01   -0.11887E-04   -0.35343E-04    15   0.767E-02
   3 F= -.67585919E+01 E0= -.67585919E+01  d E =-.489126E-01
       N       E                     dE             d eps       ncg     rms          rms(c)
DAV:   1    -0.675885885398E+01   -0.27885E-03   -0.80254E-04    15   0.222E-01    0.136E-02
DAV:   2    -0.675889998759E+01   -0.41134E-04   -0.40151E-06    20   0.819E-03
   4 F= -.67589000E+01 E0= -.67589000E+01  d E =-.492207E-01
