<?xml version="1.0" encoding="ISO-8859-1"?>
<modeling>
 <generator>
  <i name="program" type="string">vasp </i>
  <i name="version" type="string">5.4.1  </i>
  <i name="subversion" type="string">24Jun15 (build Jul 26 2017 06:42:12) complex                          parallel </i>
  <i name="platform" type="string">IFC17.02.174_CrayMPICH7.6.0-MKL17.0.2.174 </i>
  <i name="date" type="string">2017 12 08 </i>
  <i name="time" type="string">15:57:16 </i>
 </generator>
 <incar>
  <i type="string" name="PREC">accurate</i>
  <i type="string" name="ALGO"> normal</i>
  <i type="int" name="ISPIN">     1</i>
  <i type="int" name="ICHARG">     1</i>
  <i type="int" name="NELM">   250</i>
  <i type="int" name="NELMDL">    -5</i>
  <i type="int" name="IBRION">     2</i>
  <i name="EDIFF">      0.00010000</i>
  <i name="EDIFFG">     -0.05000000</i>
  <i type="int" name="NSW">   250</i>
  <i type="int" name="ISIF">     2</i>
  <i name="ENCUT">    400.00000000</i>
  <i type="string" name="LREAL"> auto</i>
  <i type="int" name="ISMEAR">     0</i>
  <i name="SIGMA">      0.10000000</i>
  <i type="logical" name="LVHAR"> T  </i>
  <v type="int" name="KPOINT_BSE">    -1     0     0     0</v>
  <i type="int" name="NELM">   250</i>
  <i type="string" name="GGA"> PE</i>
  <i type="logical" name="LUSE_VDW"> F  </i>
  <i type="logical" name="LDIPOL"> F  </i>
 </incar>
 <kpoints>
  <generation param="Gamma">
   <v type="int" name="divisions">       1        1        1 </v>
   <v name="usershift">      0.00000000       0.00000000       0.00000000 </v>
   <v name="genvec1">      1.00000000       0.00000000       0.00000000 </v>
   <v name="genvec2">      0.00000000       1.00000000       0.00000000 </v>
   <v name="genvec3">      0.00000000       0.00000000       1.00000000 </v>
   <v name="shift">      0.00000000       0.00000000       0.00000000 </v>
  </generation>
  <varray name="kpointlist" >
   <v>       0.00000000       0.00000000       0.00000000 </v>
  </varray>
  <varray name="weights" >
   <v>       1.00000000 </v>
  </varray>
 </kpoints>
 <parameters>
  <separator name="general" >
   <i type="string" name="SYSTEM">unknown system</i>
   <i type="logical" name="LCOMPAT"> F  </i>
  </separator>
  <separator name="electronic" >
   <i type="string" name="PREC">accura</i>
   <i name="ENMAX">    400.00000000</i>
   <i name="ENAUG">    400.00000000</i>
   <i name="EDIFF">      0.00010000</i>
   <i type="int" name="IALGO">    38</i>
   <i type="int" name="IWAVPR">    11</i>
   <i type="int" name="NBANDS">     5</i>
   <i name="NELECT">      2.00000000</i>
   <i type="int" name="TURBO">     0</i>
   <i type="int" name="IRESTART">     0</i>
   <i type="int" name="NREBOOT">     0</i>
   <i type="int" name="NMIN">     0</i>
   <i name="EREF">      0.00000000</i>
   <separator name="electronic smearing" >
    <i type="int" name="ISMEAR">     0</i>
    <i name="SIGMA">      0.10000000</i>
    <i name="KSPACING">      0.50000000</i>
    <i type="logical" name="KGAMMA"> T  </i>
   </separator>
   <separator name="electronic projectors" >
    <i type="logical" name="LREAL"> T  </i>
    <v name="ROPT">     -0.00025000</v>
    <i type="int" name="LMAXPAW">  -100</i>
    <i type="int" name="LMAXMIX">     2</i>
    <i type="logical" name="NLSPLINE"> F  </i>
   </separator>
   <separator name="electronic startup" >
    <i type="int" name="ISTART">     0</i>
    <i type="int" name="ICHARG">     1</i>
    <i type="int" name="INIWAV">     1</i>
   </separator>
   <separator name="electronic spin" >
    <i type="int" name="ISPIN">     1</i>
    <i type="logical" name="LNONCOLLINEAR"> F  </i>
    <v name="MAGMOM">      1.00000000      1.00000000</v>
    <i name="NUPDOWN">     -1.00000000</i>
    <i type="logical" name="LSORBIT"> F  </i>
    <v name="SAXIS">      0.00000000      0.00000000      1.00000000</v>
    <i type="logical" name="LSPIRAL"> F  </i>
    <v name="QSPIRAL">      0.00000000      0.00000000      0.00000000</v>
    <i type="logical" name="LZEROZ"> F  </i>
   </separator>
   <separator name="electronic exchange-correlation" >
    <i type="logical" name="LASPH"> F  </i>
    <i type="logical" name="LMETAGGA"> F  </i>
   </separator>
   <separator name="electronic convergence" >
    <i type="int" name="NELM">   250</i>
    <i type="int" name="NELMDL">    -5</i>
    <i type="int" name="NELMIN">     2</i>
    <i name="ENINI">    400.00000000</i>
    <separator name="electronic convergence detail" >
     <i type="logical" name="LDIAG"> T  </i>
     <i type="logical" name="LSUBROT"> F  </i>
     <i name="WEIMIN">      0.00100000</i>
     <i name="EBREAK">      0.00000500</i>
     <i name="DEPER">      0.30000000</i>
     <i type="int" name="NRMM">     4</i>
     <i name="TIME">      0.40000000</i>
    </separator>
   </separator>
   <separator name="electronic mixer" >
    <i name="AMIX">      0.40000000</i>
    <i name="BMIX">      1.00000000</i>
    <i name="AMIN">      0.10000000</i>
    <i name="AMIX_MAG">      1.60000000</i>
    <i name="BMIX_MAG">      1.00000000</i>
    <separator name="electronic mixer details" >
     <i type="int" name="IMIX">     4</i>
     <i type="logical" name="MIXFIRST"> F  </i>
     <i type="int" name="MAXMIX">   -45</i>
     <i name="WC">    100.00000000</i>
     <i type="int" name="INIMIX">     1</i>
     <i type="int" name="MIXPRE">     1</i>
     <i type="int" name="MREMOVE">     5</i>
    </separator>
   </separator>
   <separator name="electronic dipolcorrection" >
    <i type="logical" name="LDIPOL"> F  </i>
    <i type="logical" name="LMONO"> F  </i>
    <i type="int" name="IDIPOL">     0</i>
    <i name="EPSILON">      1.00000000</i>
    <v name="DIPOL">   -100.00000000   -100.00000000   -100.00000000</v>
    <i name="EFIELD">      0.00000000</i>
   </separator>
  </separator>
  <separator name="grids" >
   <i type="int" name="NGX">   140</i>
   <i type="int" name="NGY">   140</i>
   <i type="int" name="NGZ">   140</i>
   <i type="int" name="NGXF">   280</i>
   <i type="int" name="NGYF">   280</i>
   <i type="int" name="NGZF">   280</i>
   <i type="logical" name="ADDGRID"> F  </i>
  </separator>
  <separator name="ionic" >
   <i type="int" name="NSW">   250</i>
   <i type="int" name="IBRION">     2</i>
   <i type="int" name="ISIF">     2</i>
   <i name="PSTRESS">      0.00000000</i>
   <i name="EDIFFG">     -0.05000000</i>
   <i type="int" name="NFREE">     1</i>
   <i name="POTIM">      0.50000000</i>
   <i name="SMASS">     -3.00000000</i>
   <i name="SCALEE">      1.00000000</i>
  </separator>
  <separator name="ionic md" >
   <i name="TEBEG">      0.00010000</i>
   <i name="TEEND">      0.00010000</i>
   <i type="int" name="NBLOCK">     1</i>
   <i type="int" name="KBLOCK">   250</i>
   <i type="int" name="NPACO">   256</i>
   <i name="APACO">     16.00000000</i>
  </separator>
  <separator name="symmetry" >
   <i type="int" name="ISYM">     2</i>
   <i name="SYMPREC">      0.00001000</i>
  </separator>
  <separator name="dos" >
   <i type="logical" name="LORBIT"> F  </i>
   <v name="RWIGS">     -1.00000000</v>
   <i type="int" name="NEDOS">   301</i>
   <i name="EMIN">     10.00000000</i>
   <i name="EMAX">    -10.00000000</i>
   <i name="EFERMI">      0.00000000</i>
  </separator>
  <separator name="writing" >
   <i type="int" name="NWRITE">     2</i>
   <i type="logical" name="LWAVE"> T  </i>
   <i type="logical" name="LCHARG"> T  </i>
   <i type="logical" name="LPARD"> F  </i>
   <i type="logical" name="LVTOT"> F  </i>
   <i type="logical" name="LVHAR"> T  </i>
   <i type="logical" name="LELF"> F  </i>
   <i type="logical" name="LOPTICS"> F  </i>
   <v name="STM">      0.00000000      0.00000000      0.00000000      0.00000000      0.00000000      0.00000000      0.00000000</v>
  </separator>
  <separator name="performance" >
   <i type="int" name="NPAR">     1</i>
   <i type="int" name="NSIM">     4</i>
   <i type="int" name="NBLK">    -1</i>
   <i type="logical" name="LPLANE"> T  </i>
   <i type="logical" name="LSCALAPACK"> T  </i>
   <i type="logical" name="LSCAAWARE"> F  </i>
   <i type="logical" name="LSCALU"> F  </i>
   <i type="logical" name="LASYNC"> F  </i>
   <i type="logical" name="LORBITALREAL"> F  </i>
  </separator>
  <separator name="miscellaneous" >
   <i type="int" name="IDIOT">     3</i>
   <i type="logical" name="LMUSIC"> F  </i>
   <v name="POMASS">      1.00000000</v>
   <v name="DARWINR">      0.00000000</v>
   <v name="DARWINV">      1.00000000</v>
   <i type="logical" name="LCORR"> T  </i>
  </separator>
  <i type="logical" name="GGA_COMPAT"> T  </i>
  <i type="logical" name="LBERRY"> F  </i>
  <i type="int" name="ICORELEVEL">     0</i>
  <i type="logical" name="LDAU"> F  </i>
  <i type="int" name="I_CONSTRAINED_M">     0</i>
  <separator name="electronic exchange-correlation" >
   <i type="string" name="GGA">PE</i>
   <i type="int" name="VOSKOWN">     0</i>
   <i type="logical" name="LHFCALC"> F  </i>
   <i type="string" name="PRECFOCK"></i>
   <i type="logical" name="LSYMGRAD"> F  </i>
   <i type="logical" name="LHFONE"> F  </i>
   <i type="logical" name="LRHFCALC"> F  </i>
   <i type="logical" name="LTHOMAS"> F  </i>
   <i type="logical" name="LMODELHF"> F  </i>
   <i name="ENCUT4O">     -1.00000000</i>
   <i type="int" name="EXXOEP">     0</i>
   <i type="int" name="FOURORBIT">     0</i>
   <i name="AEXX">      0.00000000</i>
   <i name="HFALPHA">      0.00000000</i>
   <i name="MCALPHA">      0.00000000</i>
   <i name="ALDAX">      1.00000000</i>
   <i name="AGGAX">      1.00000000</i>
   <i name="ALDAC">      1.00000000</i>
   <i name="AGGAC">      1.00000000</i>
   <i type="int" name="NKREDX">     1</i>
   <i type="int" name="NKREDY">     1</i>
   <i type="int" name="NKREDZ">     1</i>
   <i type="logical" name="SHIFTRED"> F  </i>
   <i type="logical" name="ODDONLY"> F  </i>
   <i type="logical" name="EVENONLY"> F  </i>
   <i type="int" name="LMAXFOCK">     0</i>
   <i type="int" name="NMAXFOCKAE">     0</i>
   <i type="logical" name="LFOCKAEDFT"> F  </i>
   <i name="HFSCREEN">      0.00000000</i>
   <i name="HFSCREENC">      0.00000000</i>
   <i type="int" name="NBANDSGWLOW">     0</i>
  </separator>
  <separator name="vdW DFT" >
   <i type="logical" name="LUSE_VDW"> F  </i>
   <i name="Zab_VDW">     -0.84910000</i>
   <i name="PARAM1">      0.12340000</i>
   <i name="PARAM2">      1.00000000</i>
   <i name="PARAM3">      0.00000000</i>
  </separator>
  <separator name="model GW" >
   <i type="int" name="MODEL_GW">     0</i>
   <i name="MODEL_EPS0">   2400.00000000</i>
   <i name="MODEL_ALPHA">      1.00000000</i>
  </separator>
  <separator name="linear response parameters" >
   <i type="logical" name="LEPSILON"> F  </i>
   <i type="logical" name="LRPA"> F  </i>
   <i type="logical" name="LNABLA"> F  </i>
   <i type="logical" name="LVEL"> F  </i>
   <i type="int" name="KINTER">     0</i>
   <i name="CSHIFT">      0.10000000</i>
   <i name="OMEGAMAX">     -1.00000000</i>
   <i name="DEG_THRESHOLD">      0.00200000</i>
  </separator>
  <separator name="orbital magnetization" >
   <i type="logical" name="NUCIND"> F  </i>
   <v name="MAGPOS">      0.00000000      0.00000000      0.00000000</v>
   <i type="logical" name="LNICSALL"> T  </i>
   <i type="logical" name="ORBITALMAG"> F  </i>
   <i type="logical" name="LMAGBLOCH"> F  </i>
   <i type="logical" name="LCHIMAG"> F  </i>
   <i type="logical" name="LGAUGE"> T  </i>
   <i type="int" name="MAGATOM">     0</i>
   <v name="MAGDIPOL">      0.00000000      0.00000000      0.00000000</v>
   <v name="AVECCONST">      0.00000000      0.00000000      0.00000000</v>
  </separator>
  <separator name="response functions" >
   <i type="logical" name="LADDER"> F  </i>
   <i type="logical" name="LFXC"> F  </i>
   <i type="logical" name="LHARTREE"> T  </i>
   <i type="int" name="IBSE">     0</i>
   <v type="int" name="KPOINT">    -1     0     0     0</v>
   <i type="logical" name="LTCTE"> F  </i>
   <i type="logical" name="LTETE"> F  </i>
   <i type="logical" name="LTRIPLET"> F  </i>
   <i type="logical" name="LFXCEPS"> F  </i>
   <i type="logical" name="LFXHEG"> F  </i>
   <i type="int" name="NATURALO">     0</i>
   <i type="logical" name="L2ORDER"> F  </i>
   <i type="logical" name="LUSEW"> F  </i>
   <i name="ENCUTGW">     -2.00000000</i>
   <i name="ENCUTGWSOFT">     -2.00000000</i>
   <i name="ENCUTLF">     -1.00000000</i>
   <i type="int" name="LMAXMP2">    -1</i>
   <i name="SCISSOR">      0.00000000</i>
   <i type="int" name="NOMEGA">     0</i>
   <i type="int" name="NOMEGAR">     0</i>
   <i type="int" name="NBANDSGW">    -1</i>
   <i type="int" name="NBANDSO">    -1</i>
   <i type="int" name="NBANDSV">    -1</i>
   <i type="int" name="NELM">   250</i>
   <i type="int" name="NELMHF">     1</i>
   <i type="int" name="DIM">     3</i>
   <i type="int" name="ANTIRES">     0</i>
   <i name="OMEGAMAX">    -30.00000000</i>
   <i name="OMEGAMIN">    -30.00000000</i>
   <i name="OMEGATL">   -200.00000000</i>
   <i type="int" name="OMEGAGRID">     0</i>
   <i name="CSHIFT">     -0.10000000</i>
   <i type="logical" name="SELFENERGY"> F  </i>
   <i type="logical" name="LSPECTRAL"> F  </i>
   <i type="logical" name="LSPECTRALGW"> F  </i>
   <i type="logical" name="LSINGLES"> F  </i>
   <i type="logical" name="LFERMIGW"> F  </i>
   <i type="logical" name="ODDONLYGW"> F  </i>
   <i type="logical" name="EVENONLYGW"> F  </i>
   <i type="int" name="NKREDLFX">     1</i>
   <i type="int" name="NKREDLFY">     1</i>
   <i type="int" name="NKREDLFZ">     1</i>
   <i type="int" name="MAXMEM">  1800</i>
   <i type="int" name="TELESCOPE">     0</i>
   <i type="int" name="TAUPAR">     1</i>
   <i type="int" name="OMEGAPAR">    -1</i>
   <i name="LAMBDA">      1.00000000</i>
  </separator>
  <separator name="External order field" >
   <i name="OFIELD_KAPPA">      0.00000000</i>
   <v name="OFIELD_K">      0.00000000      0.00000000      0.00000000</v>
   <i name="OFIELD_Q6_NEAR">      0.00000000</i>
   <i name="OFIELD_Q6_FAR">      0.00000000</i>
   <i name="OFIELD_A">      0.00000000</i>
  </separator>
  <separator name="solvation model" >
   <i type="logical" name="LSOL"> F  </i>
  </separator>
 </parameters>
 <atominfo>
  <atoms>       2 </atoms>
  <types>       1 </types>
  <array name="atoms" >
   <dimension dim="1">ion</dimension>
   <field type="string">element</field>
   <field type="int">atomtype</field>
   <set>
    <rc><c>H </c><c>   1</c></rc>
    <rc><c>H </c><c>   1</c></rc>
   </set>
  </array>
  <array name="atomtypes" >
   <dimension dim="1">type</dimension>
   <field type="int">atomspertype</field>
   <field type="string">element</field>
   <field>mass</field>
   <field>valence</field>
   <field type="string">pseudopotential</field>
   <set>
    <rc><c>   2</c><c>H </c><c>      1.00000000</c><c>      1.00000000</c><c>  PAW_PBE H 15Jun2001                   </c></rc>
   </set>
  </array>
 </atominfo>
 <structure name="initialpos" >
  <crystal>
   <varray name="basis" >
    <v>      20.00000000       0.00000000       0.00000000 </v>
    <v>       0.00000000      20.00000000       0.00000000 </v>
    <v>       0.00000000       0.00000000      20.00000000 </v>
   </varray>
   <i name="volume">   8000.00000000 </i>
   <varray name="rec_basis" >
    <v>       0.05000000       0.00000000       0.00000000 </v>
    <v>       0.00000000       0.05000000       0.00000000 </v>
    <v>       0.00000000       0.00000000       0.05000000 </v>
   </varray>
  </crystal>
  <varray name="positions" >
   <v>       0.00000000       0.00000000       0.00000000 </v>
   <v>       0.00000000       0.00000000       0.03500000 </v>
  </varray>
 </structure>
 <calculation>
  <scstep>
   <time name="dav">    0.74    0.88</time>
   <time name="total">    2.02    6.27</time>
   <energy>
    <i name="alphaZ">      0.00121808 </i>
    <i name="ewald">     16.48732706 </i>
    <i name="hartreedc">    -24.87706409 </i>
    <i name="XCdc">      4.38344069 </i>
    <i name="pawpsdc">      4.26805487 </i>
    <i name="pawaedc">     -4.28581044 </i>
    <i name="eentropy">     -0.00000000 </i>
    <i name="bandstr">    -24.32127559 </i>
    <i name="atom">     24.95726533 </i>
    <i name="e_fr_energy">     -3.38684408 </i>
    <i name="e_wo_entrp">     -3.38684408 </i>
    <i name="e_0_energy">     -3.38684408 </i>
   </energy>
  </scstep>
  <scstep>
   <time name="dav">    0.25    0.25</time>
   <time name="total">    0.31    0.32</time>
   <energy>
    <i name="e_fr_energy">     -7.43169272 </i>
    <i name="e_wo_entrp">     -7.43169272 </i>
    <i name="e_0_energy">     -7.43169272 </i>
   </energy>
  </scstep>
  <scstep>
   <time name="dav">    0.43    0.44</time>
   <time name="total">    0.44    0.46</time>
   <energy>
    <i name="e_fr_energy">     -7.51039555 </i>
    <i name="e_wo_entrp">     -7.51039555 </i>
    <i name="e_0_energy">     -7.51039555 </i>
   </energy>
  </scstep>
  <scstep>
   <time name="dav">    0.32    0.32</time>
   <time name="total">    0.32    0.34</time>
   <energy>
    <i name="e_fr_energy">     -7.51040917 </i>
    <i name="e_wo_entrp">     -7.51040917 </i>
    <i name="e_0_energy">     -7.51040917 </i>
   </energy>
  </scstep>
  <scstep>
   <time name="dav">    0.24    0.23</time>
   <time name="total">    1.27    1.33</time>
   <energy>
    <i name="e_fr_energy">     -7.51040917 </i>
    <i name="e_wo_entrp">     -7.51040917 </i>
    <i name="e_0_energy">     -7.51040917 </i>
   </energy>
  </scstep>
  <scstep>
   <time name="dav">    0.22    0.22</time>
   <time name="total">    2.00    2.06</time>
   <energy>
    <i name="e_fr_energy">     -6.98635496 </i>
    <i name="e_wo_entrp">     -6.98635496 </i>
    <i name="e_0_energy">     -6.98635496 </i>
   </energy>
  </scstep>
  <scstep>
   <time name="dav">    0.31    0.31</time>
   <time name="total">    2.04    7.92</time>
   <energy>
    <i name="e_fr_energy">     -6.70545584 </i>
    <i name="e_wo_entrp">     -6.70545584 </i>
    <i name="e_0_energy">     -6.70545584 </i>
   </energy>
  </scstep>
  <scstep>
   <time name="dav">    0.23    0.23</time>
   <time name="total">    1.90    1.91</time>
   <energy>
    <i name="e_fr_energy">     -6.70950801 </i>
    <i name="e_wo_entrp">     -6.70950801 </i>
    <i name="e_0_energy">     -6.70950801 </i>
   </energy>
  </scstep>
  <scstep>
   <time name="dav">    0.31    0.31</time>
   <time name="total">    1.99    2.00</time>
   <energy>
    <i name="e_fr_energy">     -6.70512179 </i>
    <i name="e_wo_entrp">     -6.70512179 </i>
    <i name="e_0_energy">     -6.70512179 </i>
   </energy>
  </scstep>
  <scstep>
   <time name="dav">    0.31    0.31</time>
   <time name="total">    2.03    2.08</time>
   <energy>
    <i name="e_fr_energy">     -6.70667471 </i>
    <i name="e_wo_entrp">     -6.70667471 </i>
    <i name="e_0_energy">     -6.70667471 </i>
   </energy>
  </scstep>
  <scstep>
   <time name="dav">    0.38    0.38</time>
   <time name="total">    2.06    2.07</time>
   <energy>
    <i name="e_fr_energy">     -6.70726043 </i>
    <i name="e_wo_entrp">     -6.70726043 </i>
    <i name="e_0_energy">     -6.70726043 </i>
   </energy>
  </scstep>
  <scstep>
   <time name="dav">    0.22    0.22</time>
   <time name="total">    1.92   22.44</time>
   <energy>
    <i name="e_fr_energy">     -6.70917037 </i>
    <i name="e_wo_entrp">     -6.70917037 </i>
    <i name="e_0_energy">     -6.70917037 </i>
   </energy>
  </scstep>
  <scstep>
   <time name="dav">    0.38    0.38</time>
   <time name="total">    2.07    2.08</time>
   <energy>
    <i name="e_fr_energy">     -6.70947775 </i>
    <i name="e_wo_entrp">     -6.70947775 </i>
    <i name="e_0_energy">     -6.70947775 </i>
   </energy>
  </scstep>
  <scstep>
   <time name="dav">    0.22    0.22</time>
   <time name="total">    1.93    1.94</time>
   <energy>
    <i name="e_fr_energy">     -6.70961590 </i>
    <i name="e_wo_entrp">     -6.70961590 </i>
    <i name="e_0_energy">     -6.70961590 </i>
   </energy>
  </scstep>
  <scstep>
   <time name="dav">    0.38    0.38</time>
   <time name="total">    1.53    1.55</time>
   <energy>
    <i name="alphaZ">      0.00121808 </i>
    <i name="ewald">     16.48732706 </i>
    <i name="hartreedc">    -32.36300208 </i>
    <i name="XCdc">      5.42307162 </i>
    <i name="pawpsdc">     28.31409056 </i>
    <i name="pawaedc">    -28.37052338 </i>
    <i name="eentropy">     -0.00000000 </i>
    <i name="bandstr">    -21.15912645 </i>
    <i name="atom">     24.95726533 </i>
    <i name="e_fr_energy">     -6.70967926 </i>
    <i name="e_wo_entrp">     -6.70967926 </i>
    <i name="e_0_energy">     -6.70967926 </i>
   </energy>
  </scstep>
  <structure>
   <crystal>
    <varray name="basis" >
     <v>      20.00000000       0.00000000       0.00000000 </v>
     <v>       0.00000000      20.00000000       0.00000000 </v>
     <v>       0.00000000       0.00000000      20.00000000 </v>
    </varray>
    <i name="volume">   8000.00000000 </i>
    <varray name="rec_basis" >
     <v>       0.05000000       0.00000000       0.00000000 </v>
     <v>       0.00000000       0.05000000       0.00000000 </v>
     <v>       0.00000000       0.00000000       0.05000000 </v>
    </varray>
   </crystal>
   <varray name="positions" >
    <v>       0.00000000       0.00000000       0.00000000 </v>
    <v>       0.00000000       0.00000000       0.03500000 </v>
   </varray>
  </structure>
  <varray name="forces" >
   <v>       0.00000000       0.00000000      -2.05584582 </v>
   <v>       0.00000000      -0.00000000       2.05584582 </v>
  </varray>
  <varray name="stress" >
   <v>      -0.02511872       0.00000000       0.00000000 </v>
   <v>       0.00000000      -0.02511872       0.00000000 </v>
   <v>      -0.00000000       0.00000000       0.25868022 </v>
  </varray>
  <energy>
   <i name="e_fr_energy">     -6.70967926 </i>
   <i name="e_wo_entrp">     -6.70967926 </i>
   <i name="e_0_energy">     -0.00000000 </i>
  </energy>
  <time name="totalsc">   93.78  131.30</time>
 </calculation>
 <calculation>
  <scstep>
   <time name="dav">    0.23    0.23</time>
   <time name="total">    2.00   12.09</time>
   <energy>
    <i name="alphaZ">      0.00121808 </i>
    <i name="ewald">     11.94639469 </i>
    <i name="hartreedc">    -30.62733400 </i>
    <i name="XCdc">      5.21290496 </i>
    <i name="pawpsdc">     28.31467493 </i>
    <i name="pawaedc">    -28.37110280 </i>
    <i name="eentropy">     -0.00000000 </i>
    <i name="bandstr">    -17.95834259 </i>
    <i name="atom">     24.95726533 </i>
    <i name="e_fr_energy">     -6.52432140 </i>
    <i name="e_wo_entrp">     -6.52432140 </i>
    <i name="e_0_energy">     -6.52432140 </i>
   </energy>
  </scstep>
  <scstep>
   <time name="dav">    0.31    0.31</time>
   <time name="total">    2.00   69.32</time>
   <energy>
    <i name="e_fr_energy">     -6.49159529 </i>
    <i name="e_wo_entrp">     -6.49159529 </i>
    <i name="e_0_energy">     -6.49159529 </i>
   </energy>
  </scstep>
  <scstep>
   <time name="dav">    0.30    0.31</time>
   <time name="total">    1.96   21.47</time>
   <energy>
    <i name="e_fr_energy">     -6.48233896 </i>
    <i name="e_wo_entrp">     -6.48233896 </i>
    <i name="e_0_energy">     -6.48233896 </i>
   </energy>
  </scstep>
  <scstep>
   <time name="dav">    0.40    0.39</time>
   <time name="total">    2.10    2.12</time>
   <energy>
    <i name="e_fr_energy">     -6.48275564 </i>
    <i name="e_wo_entrp">     -6.48275564 </i>
    <i name="e_0_energy">     -6.48275564 </i>
   </energy>
  </scstep>
  <scstep>
   <time name="dav">    0.40    0.39</time>
   <time name="total">    2.09    2.11</time>
   <energy>
    <i name="e_fr_energy">     -6.48303071 </i>
    <i name="e_wo_entrp">     -6.48303071 </i>
    <i name="e_0_energy">     -6.48303071 </i>
   </energy>
  </scstep>
  <scstep>
   <time name="dav">    0.38    0.39</time>
   <time name="total">    1.57    1.62</time>
   <energy>
    <i name="alphaZ">      0.00121808 </i>
    <i name="ewald">     11.94639469 </i>
    <i name="hartreedc">    -28.96277886 </i>
    <i name="XCdc">      4.97804644 </i>
    <i name="pawpsdc">     16.41901030 </i>
    <i name="pawaedc">    -16.45347358 </i>
    <i name="eentropy">     -0.00000000 </i>
    <i name="bandstr">    -19.36878028 </i>
    <i name="atom">     24.95726533 </i>
    <i name="e_fr_energy">     -6.48309787 </i>
    <i name="e_wo_entrp">     -6.48309787 </i>
    <i name="e_0_energy">     -6.48309787 </i>
   </energy>
  </scstep>
  <structure>
   <crystal>
    <varray name="basis" >
     <v>      20.00000000       0.00000000       0.00000000 </v>
     <v>       0.00000000      20.00000000       0.00000000 </v>
     <v>       0.00000000       0.00000000      20.00000000 </v>
    </varray>
    <i name="volume">   8000.00000000 </i>
    <varray name="rec_basis" >
     <v>       0.05000000       0.00000000       0.00000000 </v>
     <v>       0.00000000       0.05000000       0.00000000 </v>
     <v>       0.00000000       0.00000000       0.05000000 </v>
    </varray>
   </crystal>
   <varray name="positions" >
    <v>       0.00000000       0.00000000      -0.00495897 </v>
    <v>       0.00000000      -0.00000000       0.03995897 </v>
   </varray>
  </structure>
  <varray name="forces" >
   <v>       0.00000000      -0.00000000       3.23825249 </v>
   <v>       0.00000000       0.00000000      -3.23825249 </v>
  </varray>
  <varray name="stress" >
   <v>      -0.02280621       0.00000000       0.00000000 </v>
   <v>       0.00000000      -0.02280621       0.00000000 </v>
   <v>       0.00000000      -0.00000000      -0.60629379 </v>
  </varray>
  <energy>
   <i name="e_fr_energy">     -6.48309787 </i>
   <i name="e_wo_entrp">     -6.48309787 </i>
   <i name="e_0_energy">     -0.00000000 </i>
  </energy>
  <time name="totalsc">   14.21  111.27</time>
 </calculation>
 <calculation>
  <scstep>
   <time name="dav">    0.22    0.22</time>
   <time name="total">    1.92    1.96</time>
   <energy>
    <i name="alphaZ">      0.00121808 </i>
    <i name="ewald">     15.04421495 </i>
    <i name="hartreedc">    -30.12913143 </i>
    <i name="XCdc">      5.11965353 </i>
    <i name="pawpsdc">     16.43066748 </i>
    <i name="pawaedc">    -16.46512118 </i>
    <i name="eentropy">     -0.00000000 </i>
    <i name="bandstr">    -21.73743345 </i>
    <i name="atom">     24.95726533 </i>
    <i name="e_fr_energy">     -6.77866669 </i>
    <i name="e_wo_entrp">     -6.77866669 </i>
    <i name="e_0_energy">     -6.77866669 </i>
   </energy>
  </scstep>
  <scstep>
   <time name="dav">    0.40    0.40</time>
   <time name="total">    2.09    2.10</time>
   <energy>
    <i name="e_fr_energy">     -6.76546763 </i>
    <i name="e_wo_entrp">     -6.76546763 </i>
    <i name="e_0_energy">     -6.76546763 </i>
   </energy>
  </scstep>
  <scstep>
   <time name="dav">    0.30    0.30</time>
   <time name="total">    1.99    2.01</time>
   <energy>
    <i name="e_fr_energy">     -6.75858000 </i>
    <i name="e_wo_entrp">     -6.75858000 </i>
    <i name="e_0_energy">     -6.75858000 </i>
   </energy>
  </scstep>
  <scstep>
   <time name="dav">    0.30    0.30</time>
   <time name="total">    1.42   19.08</time>
   <energy>
    <i name="alphaZ">      0.00121808 </i>
    <i name="ewald">     15.04421495 </i>
    <i name="hartreedc">    -31.34431785 </i>
    <i name="XCdc">      5.29084426 </i>
    <i name="pawpsdc">     24.24400971 </i>
    <i name="pawaedc">    -24.29241467 </i>
    <i name="eentropy">     -0.00000000 </i>
    <i name="bandstr">    -20.65941172 </i>
    <i name="atom">     24.95726533 </i>
    <i name="e_fr_energy">     -6.75859189 </i>
    <i name="e_wo_entrp">     -6.75859189 </i>
    <i name="e_0_energy">     -6.75859189 </i>
   </energy>
  </scstep>
  <structure>
   <crystal>
    <varray name="basis" >
     <v>      20.00000000       0.00000000       0.00000000 </v>
     <v>       0.00000000      20.00000000       0.00000000 </v>
     <v>       0.00000000       0.00000000      20.00000000 </v>
    </varray>
    <i name="volume">   8000.00000000 </i>
    <varray name="rec_basis" >
     <v>       0.05000000       0.00000000       0.00000000 </v>
     <v>       0.00000000       0.05000000       0.00000000 </v>
     <v>       0.00000000       0.00000000       0.05000000 </v>
    </varray>
   </crystal>
   <varray name="positions" >
    <v>       0.00000000       0.00000000      -0.00132057 </v>
    <v>       0.00000000      -0.00000000       0.03632057 </v>
   </varray>
  </structure>
  <varray name="forces" >
   <v>       0.00000000       0.00000000       0.06174347 </v>
   <v>       0.00000000      -0.00000000      -0.06174347 </v>
  </varray>
  <varray name="stress" >
   <v>      -0.02418630       0.00000000      -0.00000000 </v>
   <v>       0.00000000      -0.02418630       0.00000000 </v>
   <v>       0.00000000      -0.00000000      -0.03889834 </v>
  </varray>
  <energy>
   <i name="e_fr_energy">     -6.75859189 </i>
   <i name="e_wo_entrp">     -6.75859189 </i>
   <i name="e_0_energy">     -0.00000000 </i>
  </energy>
  <time name="totalsc">    9.87   38.42</time>
 </calculation>
 <calculation>
  <scstep>
   <time name="dav">    0.32    0.32</time>
   <time name="total">    2.00    3.61</time>
   <energy>
    <i name="alphaZ">      0.00121808 </i>
    <i name="ewald">     15.08341929 </i>
    <i name="hartreedc">    -31.36697472 </i>
    <i name="XCdc">      5.29266052 </i>
    <i name="pawpsdc">     24.47737743 </i>
    <i name="pawaedc">    -24.52584987 </i>
    <i name="eentropy">     -0.00000000 </i>
    <i name="bandstr">    -20.67797492 </i>
    <i name="atom">     24.95726533 </i>
    <i name="e_fr_energy">     -6.75885885 </i>
    <i name="e_wo_entrp">     -6.75885885 </i>
    <i name="e_0_energy">     -6.75885885 </i>
   </energy>
  </scstep>
  <scstep>
   <time name="dav">    0.40    0.40</time>
   <time name="total">    1.53    1.55</time>
   <energy>
    <i name="alphaZ">      0.00121808 </i>
    <i name="ewald">     15.08341929 </i>
    <i name="hartreedc">    -31.37743827 </i>
    <i name="XCdc">      5.29395762 </i>
    <i name="pawpsdc">     24.51291333 </i>
    <i name="pawaedc">    -24.56147092 </i>
    <i name="eentropy">     -0.00000000 </i>
    <i name="bandstr">    -20.66876446 </i>
    <i name="atom">     24.95726533 </i>
    <i name="e_fr_energy">     -6.75889999 </i>
    <i name="e_wo_entrp">     -6.75889999 </i>
    <i name="e_0_energy">     -6.75889999 </i>
   </energy>
  </scstep>
  <structure>
   <crystal>
    <varray name="basis" >
     <v>      20.00000000       0.00000000       0.00000000 </v>
     <v>       0.00000000      20.00000000       0.00000000 </v>
     <v>       0.00000000       0.00000000      20.00000000 </v>
    </varray>
    <i name="volume">   8000.00000000 </i>
    <varray name="rec_basis" >
     <v>       0.05000000       0.00000000       0.00000000 </v>
     <v>       0.00000000       0.05000000       0.00000000 </v>
     <v>       0.00000000       0.00000000       0.05000000 </v>
    </varray>
   </crystal>
   <varray name="positions" >
    <v>       0.00000000       0.00000000      -0.00128207 </v>
    <v>       0.00000000      -0.00000000       0.03628207 </v>
   </varray>
  </structure>
  <varray name="forces" >
   <v>       0.00000000       0.00000000       0.01670460 </v>
   <v>       0.00000000      -0.00000000      -0.01670460 </v>
  </varray>
  <varray name="stress" >
   <v>      -0.02259399       0.00000000       0.00000000 </v>
   <v>       0.00000000      -0.02259399       0.00000000 </v>
   <v>       0.00000000       0.00000000      -0.03177867 </v>
  </varray>
  <energy>
   <i name="e_fr_energy">     -6.75889999 </i>
   <i name="e_wo_entrp">     -6.75889999 </i>
   <i name="e_0_energy">     -0.00000000 </i>
  </energy>
  <time name="totalsc">    5.99    7.64</time>
  <eigenvalues>
   <array>
    <dimension dim="1">band</dimension>
    <dimension dim="2">kpoint</dimension>
    <dimension dim="3">spin</dimension>
    <field>eigene</field>
    <field>occ</field>
    <set>
     <set comment="spin 1">
      <set comment="kpoint 1">
       <r>  -10.3344    1.0000 </r>
       <r>   -0.1079    0.0000 </r>
       <r>    0.1374    0.0000 </r>
       <r>    0.2099    0.0000 </r>
       <r>    0.2370    0.0000 </r>
      </set>
     </set>
    </set>
   </array>
  </eigenvalues>
  <separator name="orbital magnetization" >
   <v name="MAGDIPOLOUT">      0.00000000      0.00000000      0.00000000</v>
  </separator>
  <dos>
   <i name="efermi">     -9.86755901 </i>
   <total>
    <array>
     <dimension dim="1">gridpoints</dimension>
     <dimension dim="2">spin</dimension>
     <field>energy</field>
     <field>total</field>
     <field>integrated</field>
     <set>
      <set comment="spin 1">
       <r>   -11.3344     0.0000     0.0000 </r>
       <r>   -11.2925     0.0000     0.0000 </r>
       <r>   -11.2506     0.0000     0.0000 </r>
       <r>   -11.2087     0.0000     0.0000 </r>
       <r>   -11.1668     0.0000     0.0000 </r>
       <r>   -11.1249     0.0000     0.0000 </r>
       <r>   -11.0830     0.0000     0.0000 </r>
       <r>   -11.0411     0.0000     0.0000 </r>
       <r>   -10.9991     0.0000     0.0000 </r>
       <r>   -10.9572     0.0000     0.0000 </r>
       <r>   -10.9153     0.0000     0.0000 </r>
       <r>   -10.8734     0.0000     0.0000 </r>
       <r>   -10.8315     0.0000     0.0000 </r>
       <r>   -10.7896     0.0000     0.0000 </r>
       <r>   -10.7477     0.0000     0.0000 </r>
       <r>   -10.7058     0.0000     0.0000 </r>
       <r>   -10.6639     0.0001     0.0000 </r>
       <r>   -10.6220     0.0011     0.0000 </r>
       <r>   -10.5801     0.0111     0.0005 </r>
       <r>   -10.5382     0.0820     0.0039 </r>
       <r>   -10.4963     0.4317     0.0220 </r>
       <r>   -10.4544     1.6141     0.0897 </r>
       <r>   -10.4125     4.2884     0.2694 </r>
       <r>   -10.3706     8.0984     0.6087 </r>
       <r>   -10.3287    10.8727     1.0644 </r>
       <r>   -10.2868    10.3791     1.4993 </r>
       <r>   -10.2449     7.0445     1.7945 </r>
       <r>   -10.2030     3.3991     1.9369 </r>
       <r>   -10.1611     1.1657     1.9858 </r>
       <r>   -10.1192     0.2840     1.9977 </r>
       <r>   -10.0772     0.0491     1.9997 </r>
       <r>   -10.0353     0.0060     2.0000 </r>
       <r>    -9.9934     0.0005     2.0000 </r>
       <r>    -9.9515     0.0000     2.0000 </r>
       <r>    -9.9096     0.0000     2.0000 </r>
       <r>    -9.8677     0.0000     2.0000 </r>
       <r>    -9.8258     0.0000     2.0000 </r>
       <r>    -9.7839     0.0000     2.0000 </r>
       <r>    -9.7420     0.0000     2.0000 </r>
       <r>    -9.7001     0.0000     2.0000 </r>
       <r>    -9.6582     0.0000     2.0000 </r>
       <r>    -9.6163     0.0000     2.0000 </r>
       <r>    -9.5744     0.0000     2.0000 </r>
       <r>    -9.5325     0.0000     2.0000 </r>
       <r>    -9.4906     0.0000     2.0000 </r>
       <r>    -9.4487     0.0000     2.0000 </r>
       <r>    -9.4068     0.0000     2.0000 </r>
       <r>    -9.3649     0.0000     2.0000 </r>
       <r>    -9.3230     0.0000     2.0000 </r>
       <r>    -9.2811     0.0000     2.0000 </r>
       <r>    -9.2392     0.0000     2.0000 </r>
       <r>    -9.1972     0.0000     2.0000 </r>
       <r>    -9.1553     0.0000     2.0000 </r>
       <r>    -9.1134     0.0000     2.0000 </r>
       <r>    -9.0715     0.0000     2.0000 </r>
       <r>    -9.0296     0.0000     2.0000 </r>
       <r>    -8.9877     0.0000     2.0000 </r>
       <r>    -8.9458     0.0000     2.0000 </r>
       <r>    -8.9039     0.0000     2.0000 </r>
       <r>    -8.8620     0.0000     2.0000 </r>
       <r>    -8.8201     0.0000     2.0000 </r>
       <r>    -8.7782     0.0000     2.0000 </r>
       <r>    -8.7363     0.0000     2.0000 </r>
       <r>    -8.6944     0.0000     2.0000 </r>
       <r>    -8.6525     0.0000     2.0000 </r>
       <r>    -8.6106     0.0000     2.0000 </r>
       <r>    -8.5687     0.0000     2.0000 </r>
       <r>    -8.5268     0.0000     2.0000 </r>
       <r>    -8.4849     0.0000     2.0000 </r>
       <r>    -8.4430     0.0000     2.0000 </r>
       <r>    -8.4011     0.0000     2.0000 </r>
       <r>    -8.3592     0.0000     2.0000 </r>
       <r>    -8.3173     0.0000     2.0000 </r>
       <r>    -8.2753     0.0000     2.0000 </r>
       <r>    -8.2334     0.0000     2.0000 </r>
       <r>    -8.1915     0.0000     2.0000 </r>
       <r>    -8.1496     0.0000     2.0000 </r>
       <r>    -8.1077     0.0000     2.0000 </r>
       <r>    -8.0658     0.0000     2.0000 </r>
       <r>    -8.0239     0.0000     2.0000 </r>
       <r>    -7.9820     0.0000     2.0000 </r>
       <r>    -7.9401     0.0000     2.0000 </r>
       <r>    -7.8982     0.0000     2.0000 </r>
       <r>    -7.8563     0.0000     2.0000 </r>
       <r>    -7.8144     0.0000     2.0000 </r>
       <r>    -7.7725     0.0000     2.0000 </r>
       <r>    -7.7306     0.0000     2.0000 </r>
       <r>    -7.6887     0.0000     2.0000 </r>
       <r>    -7.6468     0.0000     2.0000 </r>
       <r>    -7.6049     0.0000     2.0000 </r>
       <r>    -7.5630     0.0000     2.0000 </r>
       <r>    -7.5211     0.0000     2.0000 </r>
       <r>    -7.4792     0.0000     2.0000 </r>
       <r>    -7.4373     0.0000     2.0000 </r>
       <r>    -7.3954     0.0000     2.0000 </r>
       <r>    -7.3534     0.0000     2.0000 </r>
       <r>    -7.3115     0.0000     2.0000 </r>
       <r>    -7.2696     0.0000     2.0000 </r>
       <r>    -7.2277     0.0000     2.0000 </r>
       <r>    -7.1858     0.0000     2.0000 </r>
       <r>    -7.1439     0.0000     2.0000 </r>
       <r>    -7.1020     0.0000     2.0000 </r>
       <r>    -7.0601     0.0000     2.0000 </r>
       <r>    -7.0182     0.0000     2.0000 </r>
       <r>    -6.9763     0.0000     2.0000 </r>
       <r>    -6.9344     0.0000     2.0000 </r>
       <r>    -6.8925     0.0000     2.0000 </r>
       <r>    -6.8506     0.0000     2.0000 </r>
       <r>    -6.8087     0.0000     2.0000 </r>
       <r>    -6.7668     0.0000     2.0000 </r>
       <r>    -6.7249     0.0000     2.0000 </r>
       <r>    -6.6830     0.0000     2.0000 </r>
       <r>    -6.6411     0.0000     2.0000 </r>
       <r>    -6.5992     0.0000     2.0000 </r>
       <r>    -6.5573     0.0000     2.0000 </r>
       <r>    -6.5154     0.0000     2.0000 </r>
       <r>    -6.4735     0.0000     2.0000 </r>
       <r>    -6.4315     0.0000     2.0000 </r>
       <r>    -6.3896     0.0000     2.0000 </r>
       <r>    -6.3477     0.0000     2.0000 </r>
       <r>    -6.3058     0.0000     2.0000 </r>
       <r>    -6.2639     0.0000     2.0000 </r>
       <r>    -6.2220     0.0000     2.0000 </r>
       <r>    -6.1801     0.0000     2.0000 </r>
       <r>    -6.1382     0.0000     2.0000 </r>
       <r>    -6.0963     0.0000     2.0000 </r>
       <r>    -6.0544     0.0000     2.0000 </r>
       <r>    -6.0125     0.0000     2.0000 </r>
       <r>    -5.9706     0.0000     2.0000 </r>
       <r>    -5.9287     0.0000     2.0000 </r>
       <r>    -5.8868     0.0000     2.0000 </r>
       <r>    -5.8449     0.0000     2.0000 </r>
       <r>    -5.8030     0.0000     2.0000 </r>
       <r>    -5.7611     0.0000     2.0000 </r>
       <r>    -5.7192     0.0000     2.0000 </r>
       <r>    -5.6773     0.0000     2.0000 </r>
       <r>    -5.6354     0.0000     2.0000 </r>
       <r>    -5.5935     0.0000     2.0000 </r>
       <r>    -5.5516     0.0000     2.0000 </r>
       <r>    -5.5096     0.0000     2.0000 </r>
       <r>    -5.4677     0.0000     2.0000 </r>
       <r>    -5.4258     0.0000     2.0000 </r>
       <r>    -5.3839     0.0000     2.0000 </r>
       <r>    -5.3420     0.0000     2.0000 </r>
       <r>    -5.3001     0.0000     2.0000 </r>
       <r>    -5.2582     0.0000     2.0000 </r>
       <r>    -5.2163     0.0000     2.0000 </r>
       <r>    -5.1744     0.0000     2.0000 </r>
       <r>    -5.1325     0.0000     2.0000 </r>
       <r>    -5.0906     0.0000     2.0000 </r>
       <r>    -5.0487     0.0000     2.0000 </r>
       <r>    -5.0068     0.0000     2.0000 </r>
       <r>    -4.9649     0.0000     2.0000 </r>
       <r>    -4.9230     0.0000     2.0000 </r>
       <r>    -4.8811     0.0000     2.0000 </r>
       <r>    -4.8392     0.0000     2.0000 </r>
       <r>    -4.7973     0.0000     2.0000 </r>
       <r>    -4.7554     0.0000     2.0000 </r>
       <r>    -4.7135     0.0000     2.0000 </r>
       <r>    -4.6716     0.0000     2.0000 </r>
       <r>    -4.6297     0.0000     2.0000 </r>
       <r>    -4.5877     0.0000     2.0000 </r>
       <r>    -4.5458     0.0000     2.0000 </r>
       <r>    -4.5039     0.0000     2.0000 </r>
       <r>    -4.4620     0.0000     2.0000 </r>
       <r>    -4.4201     0.0000     2.0000 </r>
       <r>    -4.3782     0.0000     2.0000 </r>
       <r>    -4.3363     0.0000     2.0000 </r>
       <r>    -4.2944     0.0000     2.0000 </r>
       <r>    -4.2525     0.0000     2.0000 </r>
       <r>    -4.2106     0.0000     2.0000 </r>
       <r>    -4.1687     0.0000     2.0000 </r>
       <r>    -4.1268     0.0000     2.0000 </r>
       <r>    -4.0849     0.0000     2.0000 </r>
       <r>    -4.0430     0.0000     2.0000 </r>
       <r>    -4.0011     0.0000     2.0000 </r>
       <r>    -3.9592     0.0000     2.0000 </r>
       <r>    -3.9173     0.0000     2.0000 </r>
       <r>    -3.8754     0.0000     2.0000 </r>
       <r>    -3.8335     0.0000     2.0000 </r>
       <r>    -3.7916     0.0000     2.0000 </r>
       <r>    -3.7497     0.0000     2.0000 </r>
       <r>    -3.7078     0.0000     2.0000 </r>
       <r>    -3.6658     0.0000     2.0000 </r>
       <r>    -3.6239     0.0000     2.0000 </r>
       <r>    -3.5820     0.0000     2.0000 </r>
       <r>    -3.5401     0.0000     2.0000 </r>
       <r>    -3.4982     0.0000     2.0000 </r>
       <r>    -3.4563     0.0000     2.0000 </r>
       <r>    -3.4144     0.0000     2.0000 </r>
       <r>    -3.3725     0.0000     2.0000 </r>
       <r>    -3.3306     0.0000     2.0000 </r>
       <r>    -3.2887     0.0000     2.0000 </r>
       <r>    -3.2468     0.0000     2.0000 </r>
       <r>    -3.2049     0.0000     2.0000 </r>
       <r>    -3.1630     0.0000     2.0000 </r>
       <r>    -3.1211     0.0000     2.0000 </r>
       <r>    -3.0792     0.0000     2.0000 </r>
       <r>    -3.0373     0.0000     2.0000 </r>
       <r>    -2.9954     0.0000     2.0000 </r>
       <r>    -2.9535     0.0000     2.0000 </r>
       <r>    -2.9116     0.0000     2.0000 </r>
       <r>    -2.8697     0.0000     2.0000 </r>
       <r>    -2.8278     0.0000     2.0000 </r>
       <r>    -2.7859     0.0000     2.0000 </r>
       <r>    -2.7439     0.0000     2.0000 </r>
       <r>    -2.7020     0.0000     2.0000 </r>
       <r>    -2.6601     0.0000     2.0000 </r>
       <r>    -2.6182     0.0000     2.0000 </r>
       <r>    -2.5763     0.0000     2.0000 </r>
       <r>    -2.5344     0.0000     2.0000 </r>
       <r>    -2.4925     0.0000     2.0000 </r>
       <r>    -2.4506     0.0000     2.0000 </r>
       <r>    -2.4087     0.0000     2.0000 </r>
       <r>    -2.3668     0.0000     2.0000 </r>
       <r>    -2.3249     0.0000     2.0000 </r>
       <r>    -2.2830     0.0000     2.0000 </r>
       <r>    -2.2411     0.0000     2.0000 </r>
       <r>    -2.1992     0.0000     2.0000 </r>
       <r>    -2.1573     0.0000     2.0000 </r>
       <r>    -2.1154     0.0000     2.0000 </r>
       <r>    -2.0735     0.0000     2.0000 </r>
       <r>    -2.0316     0.0000     2.0000 </r>
       <r>    -1.9897     0.0000     2.0000 </r>
       <r>    -1.9478     0.0000     2.0000 </r>
       <r>    -1.9059     0.0000     2.0000 </r>
       <r>    -1.8640     0.0000     2.0000 </r>
       <r>    -1.8220     0.0000     2.0000 </r>
       <r>    -1.7801     0.0000     2.0000 </r>
       <r>    -1.7382     0.0000     2.0000 </r>
       <r>    -1.6963     0.0000     2.0000 </r>
       <r>    -1.6544     0.0000     2.0000 </r>
       <r>    -1.6125     0.0000     2.0000 </r>
       <r>    -1.5706     0.0000     2.0000 </r>
       <r>    -1.5287     0.0000     2.0000 </r>
       <r>    -1.4868     0.0000     2.0000 </r>
       <r>    -1.4449     0.0000     2.0000 </r>
       <r>    -1.4030     0.0000     2.0000 </r>
       <r>    -1.3611     0.0000     2.0000 </r>
       <r>    -1.3192     0.0000     2.0000 </r>
       <r>    -1.2773     0.0000     2.0000 </r>
       <r>    -1.2354     0.0000     2.0000 </r>
       <r>    -1.1935     0.0000     2.0000 </r>
       <r>    -1.1516     0.0000     2.0000 </r>
       <r>    -1.1097     0.0000     2.0000 </r>
       <r>    -1.0678     0.0000     2.0000 </r>
       <r>    -1.0259     0.0000     2.0000 </r>
       <r>    -0.9840     0.0000     2.0000 </r>
       <r>    -0.9421     0.0000     2.0000 </r>
       <r>    -0.9001     0.0000     2.0000 </r>
       <r>    -0.8582     0.0000     2.0000 </r>
       <r>    -0.8163     0.0000     2.0000 </r>
       <r>    -0.7744     0.0000     2.0000 </r>
       <r>    -0.7325     0.0000     2.0000 </r>
       <r>    -0.6906     0.0000     2.0000 </r>
       <r>    -0.6487     0.0000     2.0000 </r>
       <r>    -0.6068     0.0000     2.0000 </r>
       <r>    -0.5649     0.0000     2.0000 </r>
       <r>    -0.5230     0.0000     2.0000 </r>
       <r>    -0.4811     0.0000     2.0000 </r>
       <r>    -0.4392     0.0001     2.0000 </r>
       <r>    -0.3973     0.0010     2.0000 </r>
       <r>    -0.3554     0.0101     2.0005 </r>
       <r>    -0.3135     0.0760     2.0036 </r>
       <r>    -0.2716     0.4056     2.0206 </r>
       <r>    -0.2297     1.5384     2.0851 </r>
       <r>    -0.1878     4.1458     2.2588 </r>
       <r>    -0.1459     7.9422     2.5917 </r>
       <r>    -0.1040    10.8276     3.0454 </r>
       <r>    -0.0621    10.5723     3.4884 </r>
       <r>    -0.0202     7.7413     3.8128 </r>
       <r>     0.0218     5.5510     4.0454 </r>
       <r>     0.0637     6.9019     4.3346 </r>
       <r>     0.1056    12.3746     4.8532 </r>
       <r>     0.1475    20.1081     5.6958 </r>
       <r>     0.1894    26.5909     6.8101 </r>
       <r>     0.2313    28.1355     7.9891 </r>
       <r>     0.2732    23.3063     8.9657 </r>
       <r>     0.3151    14.7026     9.5818 </r>
       <r>     0.3570     6.8990     9.8709 </r>
       <r>     0.3989     2.3695     9.9702 </r>
       <r>     0.4408     0.5898     9.9949 </r>
       <r>     0.4827     0.1057     9.9994 </r>
       <r>     0.5246     0.0136     9.9999 </r>
       <r>     0.5665     0.0013    10.0000 </r>
       <r>     0.6084     0.0001    10.0000 </r>
       <r>     0.6503     0.0000    10.0000 </r>
       <r>     0.6922     0.0000    10.0000 </r>
       <r>     0.7341     0.0000    10.0000 </r>
       <r>     0.7760     0.0000    10.0000 </r>
       <r>     0.8179     0.0000    10.0000 </r>
       <r>     0.8598     0.0000    10.0000 </r>
       <r>     0.9017     0.0000    10.0000 </r>
       <r>     0.9437     0.0000    10.0000 </r>
       <r>     0.9856     0.0000    10.0000 </r>
       <r>     1.0275     0.0000    10.0000 </r>
       <r>     1.0694     0.0000    10.0000 </r>
       <r>     1.1113     0.0000    10.0000 </r>
       <r>     1.1532     0.0000    10.0000 </r>
       <r>     1.1951     0.0000    10.0000 </r>
       <r>     1.2370     0.0000    10.0000 </r>
      </set>
     </set>
    </array>
   </total>
  </dos>
 </calculation>
 <structure name="finalpos" >
  <crystal>
   <varray name="basis" >
    <v>      20.00000000       0.00000000       0.00000000 </v>
    <v>       0.00000000      20.00000000       0.00000000 </v>
    <v>       0.00000000       0.00000000      20.00000000 </v>
   </varray>
   <i name="volume">   8000.00000000 </i>
   <varray name="rec_basis" >
    <v>       0.05000000       0.00000000       0.00000000 </v>
    <v>       0.00000000       0.05000000       0.00000000 </v>
    <v>       0.00000000       0.00000000       0.05000000 </v>
   </varray>
  </crystal>
  <varray name="positions" >
   <v>       0.00000000       0.00000000      -0.00128207 </v>
   <v>       0.00000000      -0.00000000       0.03628207 </v>
  </varray>
 </structure>
</modeling>
