unknown system                          
           1
    20.000000    0.000000    0.000000
     0.000000   20.000000    0.000000
     0.000000    0.000000   20.000000
   H 
   2
Direct configuration=     1
   0.00000000  0.00000000  0.00000000
   0.00000000  0.00000000  0.03500000
Direct configuration=     2
   0.00000000  0.00000000 -0.00495897
   0.00000000 -0.00000000  0.03995897
Direct configuration=     3
   0.00000000  0.00000000 -0.00132057
   0.00000000 -0.00000000  0.03632057
Direct configuration=     4
   0.00000000  0.00000000 -0.00128207
   0.00000000 -0.00000000  0.03628207
