  python dir          : /home/mstatt/espresso/lib/python2.7/site-packages/espresso
  espresso dir        : /home/mstatt/espresso/q-e/bin
  pseudo dir          : /home/vossj/suncat/psp/gbrv1.5pbe
  ase-espresso py git : 5c31baa-git



     Program PWSCF v.6.1 starts on 13Nov2017 at  1:29:13 

     This program is part of the open-source Quantum ESPRESSO suite
     for quantum simulation of materials; please cite
         "P. Giannozzi et al., J. Phys.:Condens. Matter 21 395502 (2009);
          URL http://www.quantum-espresso.org", 
     in publications or presentations arising from this work. More details at
     http://www.quantum-espresso.org/quote

     Parallel version (MPI), running on    16 processors
     R & G space division:  proc/nbgrp/npool/nimage =      16
     Reading input from pw.inp
     Message from routine read_cards :
     DEPRECATED: no units specified in CELL_PARAMETERS card

     Current dimensions of program PWSCF are:
     Max number of different atomic species (ntypx) = 10
     Max number of k-points (npk) =  40000
     Max angular momentum in pseudopotentials (lmaxx) =  3
     Presently no symmetry can be used with electric field


     IMPORTANT: XC functional enforced from input :
     Exchange-correlation      = RPBE ( 1  4 30  4 0 0)
     Any further DFT definition will be discarded
     Please, verify this is what you really want


     Subspace diagonalization in iterative solution of the eigenvalue problem:
     one sub-group per band group will be used
     scalapack distributed-memory algorithm (size of sub-group:  2*  2 procs)


     Parallelization info
     --------------------
     sticks:   dense  smooth     PW     G-vecs:    dense   smooth      PW
     Min         425     169     46               110873    28035    4042
     Max         426     172     47               110886    28047    4059
     Sum        6805    2713    745              1774055   448639   64773



     bravais-lattice index     =            0
     lattice parameter (alat)  =       1.8897  a.u.
     unit-cell volume          =   14911.7911 (a.u.)^3
     number of atoms/cell      =           40
     number of atomic types    =            2
     number of electrons       =       420.00
     number of Kohn-Sham states=          230
     kinetic-energy cutoff     =      36.7493  Ry
     charge density cutoff     =     367.4932  Ry
     convergence threshold     =      7.3E-07
     mixing beta               =       0.1000
     number of iterations used =           10  plain     mixing
     Exchange-correlation      = RPBE ( 1  4 30  4 0 0)

     celldm(1)=   1.889726  celldm(2)=   0.000000  celldm(3)=   0.000000
     celldm(4)=   0.000000  celldm(5)=   0.000000  celldm(6)=   0.000000

     crystal axes: (cart. coord. in units of alat)
               a(1) = (   6.786000  -0.000000  -0.000000 )  
               a(2) = (   0.000000   9.597000  -0.000000 )  
               a(3) = (   0.000000   0.000000  33.930000 )  

     reciprocal axes: (cart. coord. in units 2 pi/alat)
               b(1) = (  0.147362 -0.000000  0.000000 )  
               b(2) = (  0.000000  0.104199 -0.000000 )  
               b(3) = (  0.000000  0.000000  0.029472 )  


     PseudoPot. # 1 for Pt read from file:
     /home/vossj/suncat/psp/gbrv1.5pbe/Pt.UPF
     MD5 check sum: f09d6de1a584b5a045c4fc126da2d0c4
     Pseudo is Ultrasoft + core correction, Zval = 16.0
     Generated by new atomic code, or converted to UPF format
     Using radial grid of  985 points,  6 beta functions with: 
                l(1) =   0
                l(2) =   0
                l(3) =   1
                l(4) =   1
                l(5) =   2
                l(6) =   2
     Q(r) pseudized with  8 coefficients,  rinner =    1.300   1.300   1.300
                                                       1.300   1.300

     PseudoPot. # 2 for N  read from file:
     /home/vossj/suncat/psp/gbrv1.5pbe/N.UPF
     MD5 check sum: 95339753478d7afb44899504a8723017
     Pseudo is Ultrasoft + core correction, Zval =  5.0
     Generated by new atomic code, or converted to UPF format
     Using radial grid of  729 points,  4 beta functions with: 
                l(1) =   0
                l(2) =   0
                l(3) =   1
                l(4) =   1
     Q(r) pseudized with  8 coefficients,  rinner =    0.900   0.900   0.900


     atomic species   valence    mass     pseudopotential
        Pt1           16.00   195.08000     Pt( 1.00)
        N1             5.00    14.00670     N ( 1.00)

     No symmetry found



   Cartesian axes

     site n.     atom                  positions (alat units)
         1           Pt1 tau(   1) = (   4.2410000   8.9970000  13.5720000  )
         2           Pt1 tau(   2) = (   0.8480000   8.9970000  13.5720000  )
         3           Pt1 tau(   3) = (   0.8480000   4.1990000  13.5720000  )
         4           Pt1 tau(   4) = (   4.2410000   4.1990000  13.5720000  )
         5           N1  tau(   5) = (   2.5450000   0.6000000  13.5720000  )
         6           N1  tau(   6) = (   5.9380000   0.6000000  13.5720000  )
         7           N1  tau(   7) = (   2.5450000   5.3980000  13.5720000  )
         8           N1  tau(   8) = (   5.9380000   5.3980000  13.5720000  )
         9           Pt1 tau(   9) = (   5.9380000   6.5980000  15.2690000  )
        10           N1  tau(  10) = (   0.8480000   2.9990000  15.2690000  )
        11           Pt1 tau(  11) = (   2.5450000   6.5980000  15.2690000  )
        12           N1  tau(  12) = (   4.2410000   7.7980000  15.2690000  )
        13           N1  tau(  13) = (   0.8480000   7.7980000  15.2690000  )
        14           Pt1 tau(  14) = (   5.9380000   1.8000000  15.2690000  )
        15           Pt1 tau(  15) = (   2.5450000   1.8000000  15.2690000  )
        16           N1  tau(  16) = (   4.2410000   2.9990000  15.2690000  )
        17           N1  tau(  17) = (   6.1330000   5.3050000  16.7070000  )
        18           N1  tau(  18) = (   5.8670000   1.1960000  17.2750000  )
        19           N1  tau(  19) = (   2.2230000   1.2730000  17.1710000  )
        20           N1  tau(  20) = (   2.5780000   6.0350000  17.2570000  )
        21           Pt1 tau(  21) = (   4.7530000   9.2160000  16.6890000  )
        22           Pt1 tau(  22) = (   4.0220000   4.6140000  16.5980000  )
        23           Pt1 tau(  23) = (   0.6990000   0.0400000  16.6680000  )
        24           Pt1 tau(  24) = (   1.2690000   4.5530000  16.6110000  )
        25           Pt1 tau(  25) = (   2.0600000   2.7670000  18.6560000  )
        26           Pt1 tau(  26) = (   2.5240000   7.2900000  18.9300000  )
        27           Pt1 tau(  27) = (   6.2740000   7.1950000  19.1470000  )
        28           Pt1 tau(  28) = (   5.4040000   2.1620000  19.1790000  )
        29           N1  tau(  29) = (   4.0330000   3.4030000  18.2870000  )
        30           N1  tau(  30) = (   4.4970000   8.1750000  18.6180000  )
        31           N1  tau(  31) = (   0.2520000   3.1970000  19.2690000  )
        32           N1  tau(  32) = (   0.8660000   8.4350000  18.3190000  )
        33           Pt1 tau(  33) = (   3.8620000   0.0550000  19.8720000  )
        34           Pt1 tau(  34) = (   3.9920000   4.6190000  19.8350000  )
        35           N1  tau(  35) = (   5.8420000   0.6360000  20.3570000  )
        36           N1  tau(  36) = (   5.6910000   5.5550000  20.0170000  )
        37           N1  tau(  37) = (   2.2900000   1.1480000  20.0970000  )
        38           N1  tau(  38) = (   2.5930000   5.8240000  20.3560000  )
        39           Pt1 tau(  39) = (   0.8580000   4.9300000  19.9470000  )
        40           Pt1 tau(  40) = (   0.8140000   9.4690000  19.9950000  )

     number of k points=    10  Fermi-Dirac smearing, width (Ry)=  0.0073
                       cart. coord. in units 2pi/alat
        k(    1) = (   0.0000000   0.0000000   0.0000000), wk =   0.1250000
        k(    2) = (   0.0000000   0.0260498   0.0000000), wk =   0.2500000
        k(    3) = (   0.0000000  -0.0520996   0.0000000), wk =   0.1250000
        k(    4) = (   0.0368406   0.0000000   0.0000000), wk =   0.2500000
        k(    5) = (   0.0368406   0.0260498   0.0000000), wk =   0.2500000
        k(    6) = (   0.0368406  -0.0520996   0.0000000), wk =   0.2500000
        k(    7) = (   0.0368406  -0.0260498   0.0000000), wk =   0.2500000
        k(    8) = (  -0.0736811   0.0000000   0.0000000), wk =   0.1250000
        k(    9) = (  -0.0736811   0.0260498   0.0000000), wk =   0.2500000
        k(   10) = (  -0.0736811  -0.0520996   0.0000000), wk =   0.1250000

     Dense  grid:  1774055 G-vectors     FFT dimensions: (  80, 120, 400)

     Smooth grid:   448639 G-vectors     FFT dimensions: (  50,  72, 250)

     Estimated max dynamical RAM per process >     338.61MB

     Estimated total allocated dynamical RAM >    5417.70MB

     Initial potential from superposition of free atoms
     Check: negative starting charge=   -3.677548

     starting charge  409.99960, renormalised to  420.00000

     negative rho (up, down):  3.767E+00 0.000E+00

     Adding external electric field

     Computed dipole along edir(3) : 
        Dipole               -0.3694 Ry au,         -0.9389 Debye
        Dipole field         -0.0003 Ry au, 

        Potential amp.        0.0389 Ry
        Total length         62.5154 bohr

     Starting wfc are  320 randomized atomic wfcs

     total cpu time spent up to now is       44.5 secs

     per-process dynamical memory:   269.0 Mb

     Self-consistent Calculation

     iteration #  1     ecut=    36.75 Ry     beta=0.10
     Davidson diagonalization with overlap
     ethr =  1.00E-02,  avg # of iterations =  2.0

     negative rho (up, down):  3.708E+00 0.000E+00

     Adding external electric field

     Computed dipole along edir(3) : 
        Dipole                2.1987 Ry au,          5.5886 Debye
        Dipole field          0.0019 Ry au, 

        Potential amp.       -0.2317 Ry
        Total length         62.5154 bohr


     total cpu time spent up to now is      134.4 secs

     total energy              =   -4616.54641881 Ry
     Harris-Foulkes estimate   =   -4626.69921149 Ry
     estimated scf accuracy    <      59.53085914 Ry

     iteration #  2     ecut=    36.75 Ry     beta=0.10
     Davidson diagonalization with overlap
     ethr =  1.00E-02,  avg # of iterations =  1.1

     negative rho (up, down):  3.697E+00 0.000E+00

     Adding external electric field

     Computed dipole along edir(3) : 
        Dipole               -2.2554 Ry au,         -5.7327 Debye
        Dipole field         -0.0019 Ry au, 

        Potential amp.        0.2376 Ry
        Total length         62.5154 bohr


     total cpu time spent up to now is      205.9 secs

     total energy              =   -4613.55256167 Ry
     Harris-Foulkes estimate   =   -4619.87097102 Ry
     estimated scf accuracy    <     102.67005929 Ry

     iteration #  3     ecut=    36.75 Ry     beta=0.10
     Davidson diagonalization with overlap
     ethr =  1.00E-02,  avg # of iterations =  1.0

     negative rho (up, down):  3.643E+00 0.000E+00

     Adding external electric field

     Computed dipole along edir(3) : 
        Dipole                0.2629 Ry au,          0.6682 Debye
        Dipole field          0.0002 Ry au, 

        Potential amp.       -0.0277 Ry
        Total length         62.5154 bohr


     total cpu time spent up to now is      277.2 secs

     total energy              =   -4610.35833828 Ry
     Harris-Foulkes estimate   =   -4619.36402197 Ry
     estimated scf accuracy    <     161.28415541 Ry

     iteration #  4     ecut=    36.75 Ry     beta=0.10
     Davidson diagonalization with overlap
     ethr =  1.00E-02,  avg # of iterations =  1.2

     negative rho (up, down):  3.606E+00 0.000E+00

     Adding external electric field

     Computed dipole along edir(3) : 
        Dipole               -0.0672 Ry au,         -0.1707 Debye
        Dipole field         -0.0001 Ry au, 

        Potential amp.        0.0071 Ry
        Total length         62.5154 bohr


     total cpu time spent up to now is      349.1 secs

     total energy              =   -4614.21201018 Ry
     Harris-Foulkes estimate   =   -4615.67953551 Ry
     estimated scf accuracy    <      12.37631836 Ry

     iteration #  5     ecut=    36.75 Ry     beta=0.10
     Davidson diagonalization with overlap
     ethr =  2.95E-03,  avg # of iterations =  2.9

     negative rho (up, down):  3.604E+00 0.000E+00

     Adding external electric field

     Computed dipole along edir(3) : 
        Dipole               -0.1129 Ry au,         -0.2870 Debye
        Dipole field         -0.0001 Ry au, 

        Potential amp.        0.0119 Ry
        Total length         62.5154 bohr


     total cpu time spent up to now is      430.3 secs

     total energy              =   -4615.00407096 Ry
     Harris-Foulkes estimate   =   -4615.32838692 Ry
     estimated scf accuracy    <       2.70077430 Ry

     iteration #  6     ecut=    36.75 Ry     beta=0.10
     Davidson diagonalization with overlap
     ethr =  6.43E-04,  avg # of iterations =  4.8

     negative rho (up, down):  3.593E+00 0.000E+00

     Adding external electric field

     Computed dipole along edir(3) : 
        Dipole               -0.1391 Ry au,         -0.3534 Debye
        Dipole field         -0.0001 Ry au, 

        Potential amp.        0.0147 Ry
        Total length         62.5154 bohr


     total cpu time spent up to now is      522.8 secs

     total energy              =   -4614.97499633 Ry
     Harris-Foulkes estimate   =   -4615.19523313 Ry
     estimated scf accuracy    <       1.31218767 Ry

     iteration #  7     ecut=    36.75 Ry     beta=0.10
     Davidson diagonalization with overlap
     ethr =  3.12E-04,  avg # of iterations =  5.2

     negative rho (up, down):  3.566E+00 0.000E+00

     Adding external electric field

     Computed dipole along edir(3) : 
        Dipole               -0.1848 Ry au,         -0.4698 Debye
        Dipole field         -0.0002 Ry au, 

        Potential amp.        0.0195 Ry
        Total length         62.5154 bohr


     total cpu time spent up to now is      613.8 secs

     total energy              =   -4614.92831306 Ry
     Harris-Foulkes estimate   =   -4615.05925454 Ry
     estimated scf accuracy    <       0.49929991 Ry

     iteration #  8     ecut=    36.75 Ry     beta=0.10
     Davidson diagonalization with overlap
     ethr =  1.19E-04,  avg # of iterations =  6.8

     negative rho (up, down):  3.550E+00 0.000E+00

     Adding external electric field

     Computed dipole along edir(3) : 
        Dipole               -0.2160 Ry au,         -0.5491 Debye
        Dipole field         -0.0002 Ry au, 

        Potential amp.        0.0228 Ry
        Total length         62.5154 bohr


     total cpu time spent up to now is      741.2 secs

     total energy              =   -4614.92649069 Ry
     Harris-Foulkes estimate   =   -4614.99153073 Ry
     estimated scf accuracy    <       0.36933541 Ry

     iteration #  9     ecut=    36.75 Ry     beta=0.10
     Davidson diagonalization with overlap
     ethr =  8.79E-05,  avg # of iterations =  1.0

     negative rho (up, down):  3.541E+00 0.000E+00

     Adding external electric field

     Computed dipole along edir(3) : 
        Dipole               -0.2190 Ry au,         -0.5565 Debye
        Dipole field         -0.0002 Ry au, 

        Potential amp.        0.0231 Ry
        Total length         62.5154 bohr


     total cpu time spent up to now is      812.3 secs

     total energy              =   -4614.93240399 Ry
     Harris-Foulkes estimate   =   -4614.94604173 Ry
     estimated scf accuracy    <       0.10089308 Ry

     iteration # 10     ecut=    36.75 Ry     beta=0.10
     Davidson diagonalization with overlap
     ethr =  2.40E-05,  avg # of iterations =  3.5

     negative rho (up, down):  3.538E+00 0.000E+00

     Adding external electric field

     Computed dipole along edir(3) : 
        Dipole               -0.2098 Ry au,         -0.5332 Debye
        Dipole field         -0.0002 Ry au, 

        Potential amp.        0.0221 Ry
        Total length         62.5154 bohr


     total cpu time spent up to now is      898.1 secs

     total energy              =   -4614.93928582 Ry
     Harris-Foulkes estimate   =   -4614.94294645 Ry
     estimated scf accuracy    <       0.03887249 Ry

     iteration # 11     ecut=    36.75 Ry     beta=0.10
     Davidson diagonalization with overlap
     ethr =  9.26E-06,  avg # of iterations =  5.2

     negative rho (up, down):  3.534E+00 0.000E+00

     Adding external electric field

     Computed dipole along edir(3) : 
        Dipole               -0.2034 Ry au,         -0.5169 Debye
        Dipole field         -0.0002 Ry au, 

        Potential amp.        0.0214 Ry
        Total length         62.5154 bohr


     total cpu time spent up to now is      989.1 secs

     total energy              =   -4614.93643852 Ry
     Harris-Foulkes estimate   =   -4614.94077590 Ry
     estimated scf accuracy    <       0.02605728 Ry

     iteration # 12     ecut=    36.75 Ry     beta=0.10
     Davidson diagonalization with overlap
     ethr =  6.20E-06,  avg # of iterations =  1.2

     negative rho (up, down):  3.531E+00 0.000E+00

     Adding external electric field

     Computed dipole along edir(3) : 
        Dipole               -0.2080 Ry au,         -0.5287 Debye
        Dipole field         -0.0002 Ry au, 

        Potential amp.        0.0219 Ry
        Total length         62.5154 bohr


     total cpu time spent up to now is     1060.8 secs

     total energy              =   -4614.93713012 Ry
     Harris-Foulkes estimate   =   -4614.93810788 Ry
     estimated scf accuracy    <       0.01073178 Ry

     iteration # 13     ecut=    36.75 Ry     beta=0.10
     Davidson diagonalization with overlap
     ethr =  2.56E-06,  avg # of iterations =  5.5

     negative rho (up, down):  3.528E+00 0.000E+00

     Adding external electric field

     Computed dipole along edir(3) : 
        Dipole               -0.2072 Ry au,         -0.5265 Debye
        Dipole field         -0.0002 Ry au, 

        Potential amp.        0.0218 Ry
        Total length         62.5154 bohr


     total cpu time spent up to now is     1150.9 secs

     total energy              =   -4614.93640775 Ry
     Harris-Foulkes estimate   =   -4614.93778300 Ry
     estimated scf accuracy    <       0.00582472 Ry

     iteration # 14     ecut=    36.75 Ry     beta=0.10
     Davidson diagonalization with overlap
     ethr =  1.39E-06,  avg # of iterations =  2.3

     negative rho (up, down):  3.527E+00 0.000E+00

     Adding external electric field

     Computed dipole along edir(3) : 
        Dipole               -0.2099 Ry au,         -0.5336 Debye
        Dipole field         -0.0002 Ry au, 

        Potential amp.        0.0221 Ry
        Total length         62.5154 bohr


     total cpu time spent up to now is     1233.2 secs

     total energy              =   -4614.93707286 Ry
     Harris-Foulkes estimate   =   -4614.93709753 Ry
     estimated scf accuracy    <       0.00071317 Ry

     iteration # 15     ecut=    36.75 Ry     beta=0.10
     Davidson diagonalization with overlap
     ethr =  1.70E-07,  avg # of iterations =  3.8

     negative rho (up, down):  3.526E+00 0.000E+00

     Adding external electric field

     Computed dipole along edir(3) : 
        Dipole               -0.2030 Ry au,         -0.5161 Debye
        Dipole field         -0.0002 Ry au, 

        Potential amp.        0.0214 Ry
        Total length         62.5154 bohr


     total cpu time spent up to now is     1320.0 secs

     total energy              =   -4614.93712546 Ry
     Harris-Foulkes estimate   =   -4614.93713007 Ry
     estimated scf accuracy    <       0.00055532 Ry

     iteration # 16     ecut=    36.75 Ry     beta=0.10
     Davidson diagonalization with overlap
     ethr =  1.32E-07,  avg # of iterations =  1.7

     negative rho (up, down):  3.525E+00 0.000E+00

     Adding external electric field

     Computed dipole along edir(3) : 
        Dipole               -0.2044 Ry au,         -0.5194 Debye
        Dipole field         -0.0002 Ry au, 

        Potential amp.        0.0215 Ry
        Total length         62.5154 bohr


     total cpu time spent up to now is     1394.0 secs

     total energy              =   -4614.93716374 Ry
     Harris-Foulkes estimate   =   -4614.93715929 Ry
     estimated scf accuracy    <       0.00025065 Ry

     iteration # 17     ecut=    36.75 Ry     beta=0.10
     Davidson diagonalization with overlap
     ethr =  5.97E-08,  avg # of iterations =  4.3

     negative rho (up, down):  3.525E+00 0.000E+00

     Adding external electric field

     Computed dipole along edir(3) : 
        Dipole               -0.2024 Ry au,         -0.5144 Debye
        Dipole field         -0.0002 Ry au, 

        Potential amp.        0.0213 Ry
        Total length         62.5154 bohr


     total cpu time spent up to now is     1479.1 secs

     total energy              =   -4614.93719667 Ry
     Harris-Foulkes estimate   =   -4614.93717817 Ry
     estimated scf accuracy    <       0.00007827 Ry

     iteration # 18     ecut=    36.75 Ry     beta=0.10
     Davidson diagonalization with overlap
     ethr =  1.86E-08,  avg # of iterations =  5.0

     negative rho (up, down):  3.524E+00 0.000E+00

     Adding external electric field

     Computed dipole along edir(3) : 
        Dipole               -0.2021 Ry au,         -0.5138 Debye
        Dipole field         -0.0002 Ry au, 

        Potential amp.        0.0213 Ry
        Total length         62.5154 bohr


     total cpu time spent up to now is     1587.5 secs

     total energy              =   -4614.93722725 Ry
     Harris-Foulkes estimate   =   -4614.93720473 Ry
     estimated scf accuracy    <       0.00002703 Ry

     iteration # 19     ecut=    36.75 Ry     beta=0.10
     Davidson diagonalization with overlap
     ethr =  6.44E-09,  avg # of iterations =  1.5

     negative rho (up, down):  3.524E+00 0.000E+00

     Adding external electric field

     Computed dipole along edir(3) : 
        Dipole               -0.2015 Ry au,         -0.5122 Debye
        Dipole field         -0.0002 Ry au, 

        Potential amp.        0.0212 Ry
        Total length         62.5154 bohr


     total cpu time spent up to now is     1660.5 secs

     total energy              =   -4614.93724644 Ry
     Harris-Foulkes estimate   =   -4614.93722820 Ry
     estimated scf accuracy    <       0.00001429 Ry

     iteration # 20     ecut=    36.75 Ry     beta=0.10
     Davidson diagonalization with overlap
     ethr =  3.40E-09,  avg # of iterations =  2.5

     negative rho (up, down):  3.523E+00 0.000E+00

     Adding external electric field

     Computed dipole along edir(3) : 
        Dipole               -0.2012 Ry au,         -0.5115 Debye
        Dipole field         -0.0002 Ry au, 

        Potential amp.        0.0212 Ry
        Total length         62.5154 bohr


     total cpu time spent up to now is     1738.9 secs

     total energy              =   -4614.93726255 Ry
     Harris-Foulkes estimate   =   -4614.93724736 Ry
     estimated scf accuracy    <       0.00000592 Ry

     iteration # 21     ecut=    36.75 Ry     beta=0.10
     Davidson diagonalization with overlap
     ethr =  1.41E-09,  avg # of iterations =  2.3

     negative rho (up, down):  3.523E+00 0.000E+00

     Adding external electric field

     Computed dipole along edir(3) : 
        Dipole               -0.2013 Ry au,         -0.5116 Debye
        Dipole field         -0.0002 Ry au, 

        Potential amp.        0.0212 Ry
        Total length         62.5154 bohr


     total cpu time spent up to now is     1818.8 secs

     total energy              =   -4614.93727549 Ry
     Harris-Foulkes estimate   =   -4614.93726307 Ry
     estimated scf accuracy    <       0.00000243 Ry

     iteration # 22     ecut=    36.75 Ry     beta=0.10
     Davidson diagonalization with overlap
     ethr =  5.78E-10,  avg # of iterations =  2.5

     negative rho (up, down):  3.523E+00 0.000E+00

     Adding external electric field

     Computed dipole along edir(3) : 
        Dipole               -0.2014 Ry au,         -0.5119 Debye
        Dipole field         -0.0002 Ry au, 

        Potential amp.        0.0212 Ry
        Total length         62.5154 bohr


     total cpu time spent up to now is     1897.2 secs

     total energy              =   -4614.93728577 Ry
     Harris-Foulkes estimate   =   -4614.93727562 Ry
     estimated scf accuracy    <       0.00000104 Ry

     iteration # 23     ecut=    36.75 Ry     beta=0.10
     Davidson diagonalization with overlap
     ethr =  2.49E-10,  avg # of iterations =  3.6

     negative rho (up, down):  3.522E+00 0.000E+00

     Adding external electric field

     Computed dipole along edir(3) : 
        Dipole               -0.2011 Ry au,         -0.5112 Debye
        Dipole field         -0.0002 Ry au, 

        Potential amp.        0.0212 Ry
        Total length         62.5154 bohr


     total cpu time spent up to now is     1984.6 secs

     End of self-consistent calculation

          k = 0.0000 0.0000 0.0000 ( 56169 PWs)   bands (ev):

   -54.7119 -54.5306 -54.5257 -54.4868 -54.4563 -54.4389 -54.4160 -54.3871
   -54.3754 -54.3517 -54.3514 -54.3446 -54.3274 -54.3041 -54.2912 -54.2834
   -54.2824 -54.2561 -54.2358 -54.2141 -54.2012 -54.1084 -54.1015 -54.0417
   -54.0198 -54.0048 -53.9749 -53.9423 -53.9379 -53.9325 -53.9272 -53.9147
   -53.8535 -53.8283 -53.8135 -53.7563 -53.6877 -53.6755 -53.6744 -53.6736
   -53.6669 -53.6435 -53.6429 -53.6383 -53.6288 -53.6250 -53.6164 -53.6109
   -53.5887 -53.5539 -53.3596 -53.3456 -53.2942 -53.2493 -53.1489 -53.1357
   -53.1129 -53.0952 -53.0713 -53.0143 -16.8595 -16.4799 -16.4452 -16.2040
   -16.0023 -15.9552 -15.8718 -15.7936 -15.7249 -15.6781 -15.6147 -15.4351
   -15.3496 -15.2818 -15.2378 -15.1780 -15.1665 -15.1549 -14.9246 -14.8926
    -8.3000  -8.1289  -8.0767  -7.9528  -7.8591  -7.8206  -7.7272  -7.7019
    -7.6398  -7.5740  -7.4811  -7.4035  -7.3409  -7.2545  -7.1801  -7.1102
    -7.0659  -7.0251  -6.9933  -6.9232  -6.9022  -6.8699  -6.8459  -6.7971
    -6.7308  -6.6992  -6.6475  -6.6293  -6.5831  -6.4856  -6.4159  -6.3573
    -6.2840  -6.2550  -6.1765  -6.1258  -6.0856  -6.0620  -6.0145  -5.9509
    -5.9083  -5.8353  -5.7323  -5.7007  -5.6117  -5.5951  -5.4938  -5.4526
    -5.4304  -5.3030  -5.1752  -5.1357  -5.0427  -4.9235  -4.8893  -4.8027
    -4.7718  -4.6502  -4.5402  -4.5227  -4.4185  -4.3452  -4.2558  -4.1233
    -4.0944  -4.0063  -3.9692  -3.8756  -3.8180  -3.7796  -3.6683  -3.6448
    -3.5925  -3.5598  -3.5167  -3.4927  -3.4255  -3.4078  -3.3580  -3.3421
    -3.2689  -3.2601  -3.2479  -3.2268  -3.1817  -3.1059  -3.0475  -3.0104
    -2.9861  -2.9632  -2.9104  -2.8762  -2.8340  -2.8200  -2.7694  -2.7399
    -2.7129  -2.6851  -2.6564  -2.6280  -2.6175  -2.5179  -2.4698  -2.4218
    -2.3775  -2.2949  -2.1975  -2.1362  -2.0775  -2.0465  -1.9998  -1.9837
    -1.9379  -1.8373  -1.7825  -1.7386  -1.7107  -1.6145  -1.5979  -1.4636
    -1.4268  -1.3248  -1.1586  -1.1432  -1.0091  -0.9191  -0.7582  -0.6104
    -0.4360  -0.4223  -0.3634  -0.3564  -0.2418  -0.1994  -0.0990  -0.0557
     0.1132   0.1605   0.2025   0.2450   0.3966   0.4877   0.5739   0.6649
     0.7402   0.8540   0.9986   1.0646   1.1572   1.1900

          k = 0.0000 0.0260 0.0000 ( 56175 PWs)   bands (ev):

   -54.7119 -54.5306 -54.5257 -54.4868 -54.4563 -54.4389 -54.4160 -54.3870
   -54.3754 -54.3517 -54.3514 -54.3445 -54.3274 -54.3041 -54.2912 -54.2834
   -54.2824 -54.2561 -54.2358 -54.2141 -54.2012 -54.1084 -54.1015 -54.0418
   -54.0197 -54.0048 -53.9747 -53.9425 -53.9375 -53.9326 -53.9273 -53.9146
   -53.8535 -53.8283 -53.8135 -53.7563 -53.6877 -53.6755 -53.6744 -53.6736
   -53.6669 -53.6435 -53.6429 -53.6383 -53.6288 -53.6250 -53.6163 -53.6109
   -53.5887 -53.5539 -53.3596 -53.3456 -53.2942 -53.2493 -53.1489 -53.1357
   -53.1129 -53.0952 -53.0713 -53.0143 -16.8176 -16.5576 -16.4209 -16.2601
   -15.9606 -15.9234 -15.8672 -15.7962 -15.7198 -15.6873 -15.6072 -15.4283
   -15.3495 -15.2800 -15.2472 -15.1787 -15.1769 -15.1537 -14.9247 -14.8927
    -8.2874  -8.1472  -8.0563  -7.9427  -7.8568  -7.7862  -7.7425  -7.7049
    -7.6685  -7.5397  -7.4371  -7.3902  -7.3277  -7.2703  -7.2075  -7.1526
    -7.0936  -7.0661  -7.0316  -6.9740  -6.9318  -6.8755  -6.8168  -6.7954
    -6.7546  -6.7055  -6.6764  -6.5818  -6.5719  -6.5036  -6.4385  -6.3337
    -6.3087  -6.2149  -6.1238  -6.1186  -6.0661  -6.0302  -5.9957  -5.9509
    -5.9131  -5.8061  -5.7420  -5.6700  -5.6362  -5.5609  -5.5060  -5.4501
    -5.3706  -5.2775  -5.1857  -5.1466  -5.0233  -4.9345  -4.9036  -4.8190
    -4.7843  -4.6183  -4.5847  -4.5183  -4.4363  -4.3679  -4.2561  -4.2046
    -4.0727  -4.0090  -3.9410  -3.8840  -3.7891  -3.7310  -3.6836  -3.6492
    -3.6022  -3.5548  -3.5284  -3.5113  -3.4534  -3.4215  -3.3955  -3.3557
    -3.3000  -3.2797  -3.2423  -3.1949  -3.1456  -3.0926  -3.0614  -3.0066
    -2.9720  -2.9425  -2.9067  -2.8971  -2.8677  -2.8107  -2.7643  -2.7274
    -2.7012  -2.6757  -2.6481  -2.6047  -2.5747  -2.5655  -2.4897  -2.4146
    -2.3674  -2.3257  -2.2350  -2.1735  -2.0624  -2.0494  -2.0089  -1.9448
    -1.9291  -1.8441  -1.7618  -1.7141  -1.6622  -1.6035  -1.5678  -1.5144
    -1.3885  -1.3049  -1.2279  -1.1862  -1.0018  -0.8422  -0.7792  -0.5874
    -0.5082  -0.4140  -0.3789  -0.3457  -0.2618  -0.1949  -0.0925  -0.0254
     0.1301   0.1608   0.2053   0.2738   0.3641   0.4057   0.6118   0.6668
     0.7755   0.9019   0.9998   1.0561   1.1351   1.2235

          k = 0.0000-0.0521 0.0000 ( 56018 PWs)   bands (ev):

   -54.7118 -54.5306 -54.5257 -54.4867 -54.4563 -54.4390 -54.4160 -54.3870
   -54.3754 -54.3516 -54.3515 -54.3444 -54.3275 -54.3041 -54.2912 -54.2834
   -54.2824 -54.2561 -54.2358 -54.2141 -54.2012 -54.1084 -54.1015 -54.0419
   -54.0197 -54.0048 -53.9745 -53.9426 -53.9371 -53.9328 -53.9274 -53.9146
   -53.8535 -53.8283 -53.8135 -53.7563 -53.6877 -53.6754 -53.6744 -53.6736
   -53.6669 -53.6435 -53.6429 -53.6383 -53.6288 -53.6250 -53.6163 -53.6109
   -53.5887 -53.5539 -53.3596 -53.3456 -53.2942 -53.2493 -53.1488 -53.1357
   -53.1129 -53.0952 -53.0712 -53.0143 -16.7109 -16.6950 -16.3768 -16.3235
   -15.9606 -15.8729 -15.8511 -15.7985 -15.7313 -15.6826 -15.6034 -15.4197
   -15.3508 -15.2793 -15.2546 -15.1893 -15.1788 -15.1527 -14.9248 -14.8927
    -8.2733  -8.1637  -8.0325  -7.9327  -7.8470  -7.8069  -7.7401  -7.7033
    -7.6576  -7.4474  -7.4206  -7.3757  -7.3560  -7.3099  -7.2433  -7.2111
    -7.1207  -7.0997  -7.0584  -7.0006  -6.9347  -6.8664  -6.8345  -6.7949
    -6.7436  -6.7100  -6.6515  -6.5979  -6.5764  -6.5249  -6.4702  -6.3210
    -6.2984  -6.1468  -6.1334  -6.0897  -6.0435  -6.0179  -5.9901  -5.9332
    -5.8557  -5.8212  -5.7875  -5.7212  -5.6343  -5.5288  -5.4268  -5.3789
    -5.3410  -5.2506  -5.2274  -5.1446  -5.0445  -4.9382  -4.8833  -4.8334
    -4.7917  -4.6747  -4.5871  -4.5471  -4.4174  -4.3717  -4.3463  -4.1302
    -4.0980  -4.0330  -3.8906  -3.8520  -3.7960  -3.7446  -3.7081  -3.6626
    -3.6295  -3.5993  -3.5500  -3.4928  -3.4683  -3.4141  -3.3928  -3.3513
    -3.2987  -3.2759  -3.2610  -3.1430  -3.1197  -3.1035  -3.0486  -3.0406
    -3.0003  -2.9439  -2.9223  -2.9026  -2.8639  -2.8198  -2.7440  -2.7373
    -2.6852  -2.6485  -2.6287  -2.5829  -2.5407  -2.4977  -2.4858  -2.4530
    -2.4147  -2.3696  -2.2959  -2.1816  -2.1250  -1.9917  -1.9719  -1.9115
    -1.9019  -1.8400  -1.7618  -1.6906  -1.6261  -1.6105  -1.5571  -1.5380
    -1.4037  -1.3608  -1.2732  -1.1207  -0.9581  -0.9084  -0.6970  -0.6376
    -0.4912  -0.4191  -0.3705  -0.3281  -0.2909  -0.2319  -0.0520  -0.0194
     0.0853   0.1900   0.2302   0.2645   0.3361   0.4598   0.5271   0.6967
     0.8090   0.9231   1.0075   1.0490   1.1478   1.1842

          k = 0.0368 0.0000 0.0000 ( 56151 PWs)   bands (ev):

   -54.7118 -54.5306 -54.5256 -54.4867 -54.4559 -54.4389 -54.4152 -54.3876
   -54.3744 -54.3518 -54.3515 -54.3428 -54.3280 -54.3053 -54.2913 -54.2842
   -54.2823 -54.2565 -54.2359 -54.2141 -54.2010 -54.1086 -54.1015 -54.0421
   -54.0197 -54.0047 -53.9747 -53.9417 -53.9376 -53.9324 -53.9272 -53.9152
   -53.8536 -53.8283 -53.8136 -53.7563 -53.6874 -53.6754 -53.6728 -53.6725
   -53.6670 -53.6435 -53.6429 -53.6377 -53.6290 -53.6266 -53.6168 -53.6125
   -53.5889 -53.5539 -53.3596 -53.3456 -53.2942 -53.2493 -53.1488 -53.1357
   -53.1128 -53.0952 -53.0713 -53.0143 -16.7752 -16.4685 -16.3779 -16.2030
   -16.0640 -15.9358 -15.9215 -15.7884 -15.7272 -15.6993 -15.6212 -15.4215
   -15.3646 -15.2813 -15.2428 -15.1643 -15.1473 -15.1263 -14.9626 -14.9307
    -8.3533  -8.1214  -8.1015  -7.9522  -7.8420  -7.7531  -7.7247  -7.6955
    -7.6368  -7.5621  -7.5072  -7.4253  -7.3395  -7.3085  -7.2106  -7.1522
    -7.0716  -7.0385  -7.0299  -6.9901  -6.9429  -6.8778  -6.8103  -6.7969
    -6.7330  -6.6883  -6.6251  -6.6054  -6.5463  -6.4705  -6.3985  -6.3784
    -6.3267  -6.2875  -6.2128  -6.1676  -6.1174  -6.0722  -6.0342  -5.9912
    -5.9325  -5.8436  -5.7621  -5.7223  -5.6533  -5.6304  -5.5296  -5.4612
    -5.4160  -5.2677  -5.2310  -5.1311  -5.0701  -4.9924  -4.9190  -4.8202
    -4.7624  -4.7146  -4.5993  -4.4494  -4.4003  -4.3168  -4.2750  -4.1805
    -4.1252  -4.0679  -3.9741  -3.9003  -3.8724  -3.8284  -3.7774  -3.7093
    -3.6909  -3.6291  -3.6117  -3.5289  -3.4967  -3.4176  -3.3836  -3.3289
    -3.2642  -3.2412  -3.2196  -3.1745  -3.0903  -3.0600  -3.0386  -2.9948
    -2.9538  -2.9170  -2.8777  -2.8543  -2.8359  -2.7892  -2.7579  -2.7187
    -2.6889  -2.6781  -2.6060  -2.5849  -2.5449  -2.4291  -2.3840  -2.3600
    -2.3029  -2.2256  -2.1585  -2.1128  -2.0631  -1.9768  -1.9503  -1.8801
    -1.8620  -1.7568  -1.7309  -1.6310  -1.6070  -1.5374  -1.4541  -1.3309
    -1.2010  -1.1011  -1.0671  -0.9216  -0.8536  -0.8382  -0.7442  -0.5545
    -0.4541  -0.3634  -0.3166  -0.2712  -0.2118  -0.1496  -0.0653  -0.0075
     0.0873   0.1461   0.2150   0.3047   0.3544   0.4505   0.5293   0.6357
     0.7305   0.7762   0.8638   0.9824   1.0493   1.0918

          k = 0.0368 0.0260 0.0000 ( 56111 PWs)   bands (ev):

   -54.7118 -54.5305 -54.5256 -54.4867 -54.4559 -54.4389 -54.4152 -54.3876
   -54.3744 -54.3518 -54.3515 -54.3428 -54.3280 -54.3053 -54.2913 -54.2842
   -54.2822 -54.2565 -54.2359 -54.2141 -54.2010 -54.1086 -54.1015 -54.0422
   -54.0197 -54.0047 -53.9745 -53.9419 -53.9372 -53.9326 -53.9273 -53.9151
   -53.8536 -53.8283 -53.8136 -53.7563 -53.6874 -53.6754 -53.6728 -53.6724
   -53.6670 -53.6435 -53.6429 -53.6377 -53.6290 -53.6266 -53.6168 -53.6125
   -53.5889 -53.5539 -53.3596 -53.3456 -53.2942 -53.2493 -53.1488 -53.1357
   -53.1128 -53.0952 -53.0713 -53.0143 -16.7432 -16.5081 -16.3549 -16.2672
   -16.0631 -15.9369 -15.8752 -15.7885 -15.7261 -15.6985 -15.6038 -15.4387
   -15.3585 -15.2637 -15.2429 -15.1763 -15.1517 -15.1322 -14.9626 -14.9309
    -8.3383  -8.1392  -8.1062  -7.9522  -7.8555  -7.7352  -7.7179  -7.6659
    -7.6161  -7.5371  -7.4967  -7.3925  -7.3395  -7.3228  -7.2486  -7.1793
    -7.1577  -7.0960  -7.0333  -6.9865  -6.9241  -6.8899  -6.8237  -6.7735
    -6.7256  -6.6978  -6.6594  -6.6078  -6.5855  -6.4842  -6.4222  -6.3269
    -6.3157  -6.2651  -6.1724  -6.1571  -6.1117  -6.0306  -6.0070  -5.9648
    -5.9044  -5.8554  -5.8189  -5.7250  -5.6755  -5.5971  -5.4794  -5.4036
    -5.3516  -5.2725  -5.2335  -5.1654  -5.0653  -5.0197  -4.9238  -4.8594
    -4.7771  -4.7383  -4.5875  -4.4640  -4.3994  -4.3312  -4.2284  -4.1778
    -4.1367  -4.0487  -3.9483  -3.9377  -3.8640  -3.8231  -3.7796  -3.7399
    -3.6969  -3.6477  -3.5842  -3.5601  -3.5214  -3.4414  -3.3999  -3.3608
    -3.2954  -3.2252  -3.1697  -3.1504  -3.1469  -3.0909  -3.0475  -3.0222
    -2.9865  -2.9333  -2.9052  -2.8462  -2.8169  -2.7806  -2.7417  -2.7312
    -2.6846  -2.6505  -2.5973  -2.5562  -2.5164  -2.4781  -2.4056  -2.3756
    -2.2424  -2.2116  -2.1453  -2.1179  -2.0595  -1.9752  -1.9223  -1.8509
    -1.7962  -1.7642  -1.7118  -1.6027  -1.5695  -1.5076  -1.4039  -1.3051
    -1.2168  -1.1271  -1.0923  -0.9545  -0.8939  -0.8579  -0.7735  -0.6090
    -0.5014  -0.4027  -0.3435  -0.2517  -0.1769  -0.1451  -0.0848  -0.0074
     0.0633   0.1236   0.2475   0.3435   0.3963   0.4985   0.5229   0.6201
     0.7163   0.8442   0.8838   0.9779   1.0884   1.1543

          k = 0.0368-0.0521 0.0000 ( 56072 PWs)   bands (ev):

   -54.7118 -54.5305 -54.5256 -54.4866 -54.4559 -54.4389 -54.4153 -54.3876
   -54.3744 -54.3518 -54.3516 -54.3428 -54.3280 -54.3053 -54.2913 -54.2842
   -54.2822 -54.2565 -54.2359 -54.2141 -54.2010 -54.1086 -54.1015 -54.0423
   -54.0197 -54.0047 -53.9743 -53.9421 -53.9371 -53.9326 -53.9273 -53.9151
   -53.8536 -53.8283 -53.8136 -53.7563 -53.6874 -53.6754 -53.6728 -53.6725
   -53.6670 -53.6435 -53.6429 -53.6377 -53.6290 -53.6266 -53.6168 -53.6125
   -53.5888 -53.5539 -53.3596 -53.3456 -53.2942 -53.2493 -53.1488 -53.1357
   -53.1128 -53.0952 -53.0713 -53.0143 -16.6578 -16.6211 -16.3251 -16.2882
   -16.0720 -15.9347 -15.8562 -15.8175 -15.7200 -15.6683 -15.5908 -15.4270
   -15.3597 -15.2785 -15.2487 -15.1751 -15.1511 -15.1371 -14.9627 -14.9312
    -8.3520  -8.1270  -8.0703  -7.9567  -7.8903  -7.7562  -7.6995  -7.6695
    -7.6030  -7.5526  -7.4302  -7.4060  -7.3382  -7.2831  -7.2248  -7.1990
    -7.1816  -7.1102  -7.0442  -6.9761  -6.9527  -6.9138  -6.8380  -6.7964
    -6.7797  -6.6936  -6.6705  -6.6263  -6.5625  -6.5242  -6.4618  -6.3253
    -6.2878  -6.2507  -6.1364  -6.1200  -6.0597  -6.0434  -5.9670  -5.9482
    -5.9307  -5.8466  -5.8328  -5.7329  -5.6679  -5.5417  -5.5152  -5.3633
    -5.3214  -5.2427  -5.1862  -5.1404  -5.1186  -5.0803  -4.9561  -4.8793
    -4.7905  -4.6697  -4.6249  -4.4730  -4.4207  -4.3254  -4.2498  -4.1682
    -4.1167  -4.0243  -3.9746  -3.9430  -3.8921  -3.8339  -3.7982  -3.7491
    -3.7013  -3.6056  -3.5533  -3.5223  -3.4923  -3.4503  -3.3845  -3.3738
    -3.3300  -3.2343  -3.2045  -3.1831  -3.1598  -3.0807  -3.0729  -3.0305
    -2.9859  -2.9520  -2.9076  -2.8368  -2.8291  -2.7705  -2.7568  -2.7069
    -2.6958  -2.6277  -2.6021  -2.5625  -2.4890  -2.4655  -2.3966  -2.3644
    -2.3096  -2.2544  -2.1672  -2.1066  -2.0575  -1.9647  -1.8976  -1.8520
    -1.7826  -1.7424  -1.6984  -1.6111  -1.5186  -1.4403  -1.3394  -1.3105
    -1.2721  -1.1407  -1.0433  -0.9457  -0.8863  -0.8097  -0.7520  -0.6854
    -0.5929  -0.4887  -0.4028  -0.3117  -0.1904  -0.1182  -0.0308   0.0003
     0.0748   0.1450   0.1893   0.3077   0.4224   0.5347   0.6127   0.6764
     0.7399   0.8239   0.8792   1.0226   1.0840   1.1305

          k = 0.0368-0.0260 0.0000 ( 56111 PWs)   bands (ev):

   -54.7118 -54.5306 -54.5256 -54.4866 -54.4559 -54.4390 -54.4153 -54.3876
   -54.3744 -54.3518 -54.3515 -54.3428 -54.3280 -54.3053 -54.2913 -54.2842
   -54.2822 -54.2565 -54.2359 -54.2141 -54.2010 -54.1086 -54.1015 -54.0422
   -54.0197 -54.0047 -53.9745 -53.9419 -53.9374 -53.9324 -53.9272 -53.9152
   -53.8536 -53.8283 -53.8136 -53.7563 -53.6874 -53.6754 -53.6728 -53.6725
   -53.6670 -53.6435 -53.6429 -53.6377 -53.6290 -53.6266 -53.6168 -53.6125
   -53.5888 -53.5539 -53.3596 -53.3456 -53.2942 -53.2493 -53.1488 -53.1357
   -53.1128 -53.0952 -53.0713 -53.0143 -16.7344 -16.5354 -16.3636 -16.2153
   -16.0747 -15.9354 -15.8873 -15.8231 -15.7144 -15.6814 -15.6040 -15.4055
   -15.3663 -15.2998 -15.2461 -15.1652 -15.1463 -15.1310 -14.9627 -14.9310
    -8.3647  -8.1224  -8.0560  -7.9297  -7.8943  -7.7878  -7.7395  -7.6672
    -7.6378  -7.5358  -7.4907  -7.4160  -7.2968  -7.2800  -7.2275  -7.1471
    -7.1149  -7.0590  -7.0277  -7.0041  -6.9336  -6.8950  -6.8459  -6.8246
    -6.7557  -6.6896  -6.6600  -6.6215  -6.5322  -6.5138  -6.4612  -6.3464
    -6.3106  -6.2587  -6.1900  -6.1137  -6.0874  -6.0498  -5.9984  -5.9801
    -5.9238  -5.8724  -5.7682  -5.7153  -5.6545  -5.6132  -5.4991  -5.4521
    -5.3950  -5.2747  -5.2121  -5.1213  -5.1024  -4.9803  -4.9372  -4.8664
    -4.7473  -4.7002  -4.6014  -4.5024  -4.3810  -4.3370  -4.2722  -4.1527
    -4.0959  -4.0506  -3.9873  -3.9480  -3.9019  -3.8252  -3.7840  -3.7036
    -3.6866  -3.5988  -3.5650  -3.5339  -3.4828  -3.4276  -3.4066  -3.3646
    -3.2903  -3.2488  -3.2040  -3.1941  -3.1102  -3.0615  -3.0184  -3.0052
    -2.9779  -2.9213  -2.8868  -2.8449  -2.8281  -2.8014  -2.7714  -2.7307
    -2.6870  -2.6600  -2.6191  -2.5747  -2.4740  -2.4624  -2.4082  -2.3692
    -2.2747  -2.2255  -2.1992  -2.1418  -2.0418  -1.9964  -1.9156  -1.8857
    -1.8394  -1.7758  -1.7146  -1.6069  -1.5725  -1.5080  -1.3851  -1.3179
    -1.1898  -1.1223  -1.0376  -0.9502  -0.8636  -0.7948  -0.7307  -0.6484
    -0.5266  -0.4312  -0.3576  -0.3043  -0.1636  -0.0972  -0.0481  -0.0200
     0.0492   0.1067   0.1894   0.2648   0.4243   0.5113   0.5675   0.6736
     0.7348   0.8083   0.9269   1.0007   1.0215   1.1098

          k =-0.0737 0.0000 0.0000 ( 56008 PWs)   bands (ev):

   -54.7118 -54.5305 -54.5254 -54.4865 -54.4555 -54.4390 -54.4145 -54.3882
   -54.3734 -54.3519 -54.3516 -54.3407 -54.3289 -54.3065 -54.2913 -54.2851
   -54.2821 -54.2569 -54.2360 -54.2141 -54.2009 -54.1088 -54.1015 -54.0425
   -54.0197 -54.0046 -53.9745 -53.9411 -53.9373 -53.9324 -53.9271 -53.9157
   -53.8537 -53.8283 -53.8137 -53.7563 -53.6872 -53.6753 -53.6713 -53.6710
   -53.6670 -53.6435 -53.6429 -53.6369 -53.6291 -53.6284 -53.6172 -53.6143
   -53.5890 -53.5538 -53.3596 -53.3456 -53.2942 -53.2493 -53.1488 -53.1357
   -53.1128 -53.0953 -53.0713 -53.0143 -16.6403 -16.4888 -16.2956 -16.2151
   -16.1270 -16.0349 -15.8414 -15.8152 -15.7472 -15.7034 -15.6081 -15.4231
   -15.3661 -15.3211 -15.2366 -15.1480 -15.0867 -15.0699 -15.0331 -14.9949
    -8.3999  -8.1609  -8.0903  -7.9923  -7.9100  -7.7473  -7.6671  -7.6332
    -7.5954  -7.5370  -7.4742  -7.3754  -7.3346  -7.2907  -7.2805  -7.1703
    -7.1148  -7.0714  -7.0379  -6.9700  -6.9485  -6.9267  -6.9121  -6.8457
    -6.7600  -6.6643  -6.6233  -6.6001  -6.5374  -6.4823  -6.3971  -6.3871
    -6.3373  -6.2855  -6.2732  -6.2017  -6.1606  -6.0870  -6.0149  -5.9891
    -5.9303  -5.8808  -5.8210  -5.7481  -5.6184  -5.5851  -5.5507  -5.4227
    -5.3889  -5.3526  -5.2657  -5.2246  -5.1229  -5.0544  -4.9641  -4.9413
    -4.8597  -4.7380  -4.5438  -4.5019  -4.4166  -4.3858  -4.3071  -4.2549
    -4.1709  -4.0115  -3.9870  -3.8843  -3.8569  -3.8341  -3.8053  -3.7168
    -3.7159  -3.6649  -3.6313  -3.5552  -3.4654  -3.4205  -3.3939  -3.3401
    -3.2650  -3.2423  -3.1653  -3.1024  -3.0525  -3.0429  -3.0016  -2.9728
    -2.9116  -2.8844  -2.8773  -2.8372  -2.7714  -2.7437  -2.7190  -2.7033
    -2.6694  -2.6383  -2.5512  -2.5398  -2.4562  -2.4407  -2.3809  -2.3512
    -2.2479  -2.2354  -2.1346  -2.0897  -2.0534  -1.9631  -1.9070  -1.8576
    -1.7278  -1.7120  -1.6487  -1.5078  -1.4518  -1.3657  -1.2822  -1.1761
    -1.0680  -1.0479  -0.9360  -0.8677  -0.7665  -0.6462  -0.6169  -0.5736
    -0.4324  -0.3366  -0.2784  -0.1783  -0.1497  -0.0724  -0.0423   0.0078
     0.0428   0.1477   0.3329   0.3907   0.4479   0.5014   0.5443   0.6063
     0.7065   0.7243   0.7590   0.8218   0.8961   1.0416

          k =-0.0737 0.0260 0.0000 ( 56066 PWs)   bands (ev):

   -54.7118 -54.5305 -54.5254 -54.4865 -54.4555 -54.4389 -54.4145 -54.3882
   -54.3734 -54.3519 -54.3516 -54.3407 -54.3289 -54.3065 -54.2913 -54.2851
   -54.2821 -54.2569 -54.2360 -54.2141 -54.2009 -54.1088 -54.1015 -54.0426
   -54.0197 -54.0046 -53.9743 -53.9413 -53.9372 -53.9324 -53.9272 -53.9157
   -53.8537 -53.8283 -53.8137 -53.7563 -53.6872 -53.6753 -53.6713 -53.6710
   -53.6670 -53.6435 -53.6429 -53.6369 -53.6291 -53.6284 -53.6172 -53.6143
   -53.5890 -53.5539 -53.3596 -53.3456 -53.2942 -53.2493 -53.1488 -53.1357
   -53.1128 -53.0953 -53.0713 -53.0143 -16.6274 -16.4770 -16.3156 -16.2099
   -16.1544 -16.0454 -15.8594 -15.8170 -15.7319 -15.6759 -15.5912 -15.4310
   -15.3625 -15.3118 -15.2358 -15.1610 -15.0873 -15.0724 -15.0331 -14.9964
    -8.4164  -8.1339  -8.0921  -7.9965  -7.9526  -7.7455  -7.6573  -7.6236
    -7.5444  -7.5177  -7.4323  -7.3903  -7.3408  -7.2848  -7.2552  -7.1810
    -7.1330  -7.0840  -7.0556  -7.0256  -6.9672  -6.9522  -6.9030  -6.8293
    -6.7578  -6.7264  -6.6532  -6.5777  -6.5424  -6.4693  -6.4368  -6.3875
    -6.3508  -6.3099  -6.2299  -6.1381  -6.1081  -6.0699  -6.0166  -5.9778
    -5.9516  -5.8821  -5.8257  -5.7816  -5.6098  -5.5975  -5.4944  -5.3925
    -5.3708  -5.3274  -5.2727  -5.2380  -5.1464  -5.0476  -4.9971  -4.8893
    -4.8202  -4.7418  -4.6122  -4.4838  -4.3947  -4.3595  -4.3187  -4.1866
    -4.1569  -4.0378  -4.0113  -3.9376  -3.8814  -3.8491  -3.8304  -3.7496
    -3.7060  -3.6662  -3.5969  -3.5448  -3.5033  -3.4351  -3.3855  -3.3631
    -3.2848  -3.2526  -3.1987  -3.1275  -3.0867  -3.0463  -3.0019  -2.9456
    -2.9290  -2.8995  -2.8544  -2.8067  -2.7792  -2.7324  -2.7045  -2.6732
    -2.6640  -2.6035  -2.5525  -2.5219  -2.4793  -2.4611  -2.4207  -2.3352
    -2.2407  -2.2350  -2.1368  -2.0392  -2.0204  -1.9679  -1.8899  -1.8289
    -1.7796  -1.7203  -1.5992  -1.5080  -1.4390  -1.3535  -1.2384  -1.2291
    -1.1306  -1.0347  -0.9674  -0.8827  -0.7856  -0.7238  -0.6433  -0.5383
    -0.3888  -0.3374  -0.2589  -0.2143  -0.1401  -0.1024  -0.0196   0.0800
     0.1333   0.2102   0.3068   0.3671   0.4411   0.5010   0.5567   0.6008
     0.6275   0.7221   0.7855   0.8745   0.9181   0.9951

          k =-0.0737-0.0521 0.0000 ( 56080 PWs)   bands (ev):

   -54.7118 -54.5305 -54.5254 -54.4865 -54.4555 -54.4389 -54.4145 -54.3883
   -54.3734 -54.3519 -54.3516 -54.3408 -54.3289 -54.3065 -54.2913 -54.2851
   -54.2821 -54.2569 -54.2360 -54.2141 -54.2009 -54.1088 -54.1015 -54.0427
   -54.0196 -54.0046 -53.9742 -53.9414 -53.9370 -53.9324 -53.9272 -53.9157
   -53.8537 -53.8283 -53.8137 -53.7563 -53.6872 -53.6753 -53.6713 -53.6710
   -53.6670 -53.6435 -53.6429 -53.6369 -53.6291 -53.6285 -53.6172 -53.6143
   -53.5890 -53.5539 -53.3596 -53.3456 -53.2942 -53.2493 -53.1488 -53.1357
   -53.1128 -53.0953 -53.0713 -53.0144 -16.6126 -16.4633 -16.3390 -16.1980
   -16.1875 -16.0522 -15.8766 -15.8229 -15.7162 -15.6452 -15.5763 -15.4438
   -15.3603 -15.2956 -15.2350 -15.1778 -15.0879 -15.0750 -15.0331 -14.9979
    -8.4311  -8.1069  -8.0730  -8.0384  -7.9733  -7.7371  -7.6731  -7.5740
    -7.5425  -7.4644  -7.4004  -7.3804  -7.3401  -7.2971  -7.2560  -7.1998
    -7.1626  -7.0915  -7.0589  -7.0346  -6.9978  -6.9336  -6.8821  -6.8646
    -6.7982  -6.7716  -6.6691  -6.6010  -6.5282  -6.4976  -6.3977  -6.3828
    -6.3744  -6.3368  -6.1855  -6.0824  -6.0578  -6.0262  -6.0140  -5.9930
    -5.9514  -5.8819  -5.8530  -5.8211  -5.6187  -5.5891  -5.4815  -5.3948
    -5.3613  -5.2860  -5.2455  -5.1850  -5.1062  -5.0790  -5.0638  -4.9157
    -4.7725  -4.7235  -4.5577  -4.5041  -4.4217  -4.3517  -4.3092  -4.1734
    -4.1264  -4.0941  -4.0339  -4.0256  -3.9182  -3.8584  -3.8223  -3.7587
    -3.6978  -3.6106  -3.5776  -3.5436  -3.5010  -3.4521  -3.4083  -3.3489
    -3.3211  -3.2566  -3.2264  -3.1581  -3.1136  -3.0482  -2.9833  -2.9637
    -2.9281  -2.9110  -2.8330  -2.7857  -2.7767  -2.7229  -2.6876  -2.6657
    -2.6482  -2.5886  -2.5678  -2.5471  -2.4852  -2.4627  -2.3946  -2.3632
    -2.2682  -2.2303  -2.1119  -2.0844  -2.0065  -1.9589  -1.8980  -1.8365
    -1.6900  -1.6441  -1.5956  -1.4940  -1.4220  -1.3569  -1.2888  -1.1969
    -1.1095  -1.0794  -0.9944  -0.8846  -0.8508  -0.7660  -0.6901  -0.5583
    -0.4238  -0.3354  -0.1975  -0.1688  -0.1289  -0.0155   0.0139   0.0707
     0.1291   0.2755   0.3080   0.3356   0.4394   0.4774   0.5474   0.5747
     0.6359   0.6957   0.7946   0.8942   0.9293   1.0131

     the Fermi energy is    -0.3861 ev

!    total energy              =   -4614.93733066 Ry
     Harris-Foulkes estimate   =   -4614.93728596 Ry
     estimated scf accuracy    <       0.00000058 Ry

     The total energy is the sum of the following terms:

     one-electron contribution =  -59676.77817089 Ry
     hartree contribution      =   29883.91917382 Ry
     xc contribution           =   -1241.32059659 Ry
     ewald contribution        =   26419.30271356 Ry
     electric field correction =       0.00003409 Ry
     smearing contrib. (-TS)   =      -0.06048466 Ry

     convergence has been achieved in  23 iterations

     negative rho (up, down):  3.522E+00 0.000E+00

     Forces acting on atoms (cartesian axes, Ry/au):

     atom    1 type  1   force =    -0.00313368    0.06224723    0.05140964
     atom    2 type  1   force =     0.00092842    0.06674236    0.04577156
     atom    3 type  1   force =     0.00515200    0.05661730    0.03882373
     atom    4 type  1   force =    -0.00374771    0.05906325    0.04410111
     atom    5 type  2   force =     0.00399541   -0.05669087   -0.00972780
     atom    6 type  2   force =     0.00764385   -0.04947397   -0.01319935
     atom    7 type  2   force =    -0.00171732   -0.04886414   -0.02261496
     atom    8 type  2   force =     0.00075262   -0.05351368    0.00205030
     atom    9 type  1   force =    -0.00744420   -0.03506261   -0.02954222
     atom   10 type  2   force =    -0.00035163    0.04335488   -0.02282246
     atom   11 type  1   force =     0.01317901   -0.03936397   -0.01081271
     atom   12 type  2   force =    -0.00510310    0.03288971   -0.01406446
     atom   13 type  2   force =     0.00430126    0.03390259   -0.02300318
     atom   14 type  1   force =    -0.02019067   -0.05961755   -0.00014613
     atom   15 type  1   force =    -0.01487775   -0.03048208   -0.00653253
     atom   16 type  2   force =     0.01623244    0.01841773   -0.03378095
     atom   17 type  2   force =     0.00006586    0.00021332   -0.00014194
     atom   18 type  2   force =    -0.00017735   -0.00051116    0.00045068
     atom   19 type  2   force =    -0.00009754    0.00071928   -0.00014070
     atom   20 type  2   force =     0.00022067    0.00028854   -0.00005932
     atom   21 type  1   force =    -0.00073248   -0.00129137    0.00002881
     atom   22 type  1   force =     0.00012169    0.00018319    0.00064473
     atom   23 type  1   force =     0.00002928   -0.00041208   -0.00027179
     atom   24 type  1   force =    -0.00023941    0.00058916    0.00008466
     atom   25 type  1   force =     0.00046337    0.00104927   -0.00024240
     atom   26 type  1   force =     0.00105357    0.00042562    0.00017588
     atom   27 type  1   force =     0.00014569   -0.00028580   -0.00046709
     atom   28 type  1   force =    -0.00012910    0.00058843   -0.00091154
     atom   29 type  2   force =     0.00027438   -0.00035542    0.00125092
     atom   30 type  2   force =    -0.00008468    0.00031514    0.00089628
     atom   31 type  2   force =     0.00092065    0.00019051    0.00082056
     atom   32 type  2   force =     0.00056011   -0.00018086    0.00010339
     atom   33 type  1   force =     0.00119487   -0.00141221   -0.00035230
     atom   34 type  1   force =     0.00108423   -0.00086910   -0.00113951
     atom   35 type  2   force =     0.00059835   -0.00054240    0.00079807
     atom   36 type  2   force =     0.00043765    0.00089183    0.00087127
     atom   37 type  2   force =    -0.00103410   -0.00002862    0.00068068
     atom   38 type  2   force =    -0.00053211    0.00091819    0.00061954
     atom   39 type  1   force =     0.00026497   -0.00048869    0.00008157
     atom   40 type  1   force =    -0.00002755   -0.00016095    0.00030996
