  python dir          : /home/mstatt/espresso/lib/python2.7/site-packages/espresso
  espresso dir        : /home/mstatt/espresso/q-e/bin
  pseudo dir          : /home/vossj/suncat/psp/gbrv1.5pbe
  ase-espresso py git : 5c31baa-git



     Program PWSCF v.6.1 starts on  9Nov2017 at 21:14: 7 

     This program is part of the open-source Quantum ESPRESSO suite
     for quantum simulation of materials; please cite
         "P. Giannozzi et al., J. Phys.:Condens. Matter 21 395502 (2009);
          URL http://www.quantum-espresso.org", 
     in publications or presentations arising from this work. More details at
     http://www.quantum-espresso.org/quote

     Parallel version (MPI), running on    16 processors
     R & G space division:  proc/nbgrp/npool/nimage =      16
     Reading input from pw.inp
     Message from routine read_cards :
     DEPRECATED: no units specified in CELL_PARAMETERS card

     Current dimensions of program PWSCF are:
     Max number of different atomic species (ntypx) = 10
     Max number of k-points (npk) =  40000
     Max angular momentum in pseudopotentials (lmaxx) =  3
     Presently no symmetry can be used with electric field


     IMPORTANT: XC functional enforced from input :
     Exchange-correlation      = RPBE ( 1  4 30  4 0 0)
     Any further DFT definition will be discarded
     Please, verify this is what you really want


     Subspace diagonalization in iterative solution of the eigenvalue problem:
     one sub-group per band group will be used
     scalapack distributed-memory algorithm (size of sub-group:  2*  2 procs)


     Parallelization info
     --------------------
     sticks:   dense  smooth     PW     G-vecs:    dense   smooth      PW
     Min         223      88     26                52595    13292    2138
     Max         224      89     27                52611    13317    2161
     Sum        3571    1417    421               841657   212889   34345



     bravais-lattice index     =            0
     lattice parameter (alat)  =       1.8897  a.u.
     unit-cell volume          =    7076.3686 (a.u.)^3
     number of atoms/cell      =           42
     number of atomic types    =            3
     number of electrons       =       362.00
     number of Kohn-Sham states=          201
     kinetic-energy cutoff     =      36.7493  Ry
     charge density cutoff     =     367.4932  Ry
     convergence threshold     =      7.3E-07
     mixing beta               =       0.1000
     number of iterations used =           10  plain     mixing
     Exchange-correlation      = RPBE ( 1  4 30  4 0 0)

     celldm(1)=   1.889726  celldm(2)=   0.000000  celldm(3)=   0.000000
     celldm(4)=   0.000000  celldm(5)=   0.000000  celldm(6)=   0.000000

     crystal axes: (cart. coord. in units of alat)
               a(1) = (   6.275657  -0.000000  -0.000000 )  
               a(2) = (  -3.137828   5.434878   0.000000 )  
               a(3) = (   0.000000  -0.000000  30.744315 )  

     reciprocal axes: (cart. coord. in units 2 pi/alat)
               b(1) = (  0.159346  0.091998  0.000000 )  
               b(2) = (  0.000000  0.183997  0.000000 )  
               b(3) = (  0.000000  0.000000  0.032526 )  


     PseudoPot. # 1 for N  read from file:
     /home/vossj/suncat/psp/gbrv1.5pbe/N.UPF
     MD5 check sum: 95339753478d7afb44899504a8723017
     Pseudo is Ultrasoft + core correction, Zval =  5.0
     Generated by new atomic code, or converted to UPF format
     Using radial grid of  729 points,  4 beta functions with: 
                l(1) =   0
                l(2) =   0
                l(3) =   1
                l(4) =   1
     Q(r) pseudized with  8 coefficients,  rinner =    0.900   0.900   0.900


     PseudoPot. # 2 for Nb read from file:
     /home/vossj/suncat/psp/gbrv1.5pbe/Nb.UPF
     MD5 check sum: 573aab8a2fa660278ed4a62cd769473f
     Pseudo is Ultrasoft + core correction, Zval = 13.0
     Generated by new atomic code, or converted to UPF format
     Using radial grid of  887 points,  6 beta functions with: 
                l(1) =   0
                l(2) =   0
                l(3) =   1
                l(4) =   1
                l(5) =   2
                l(6) =   2
     Q(r) pseudized with  6 coefficients,  rinner =    1.000   1.000   1.000
                                                       1.000   1.000

     PseudoPot. # 3 for H  read from file:
     /home/vossj/suncat/psp/gbrv1.5pbe/H.UPF
     MD5 check sum: 761ae9a214b05c3daf00ab9f6b793d6f
     Pseudo is Ultrasoft, Zval =  1.0
     Generated by new atomic code, or converted to UPF format
     Using radial grid of  615 points,  2 beta functions with: 
                l(1) =   0
                l(2) =   0
     Q(r) pseudized with  8 coefficients,  rinner =    0.700

     atomic species   valence    mass     pseudopotential
        N1             5.00    14.00670     N ( 1.00)
        Nb1           13.00    92.90640     Nb( 1.00)
        H1             1.00     1.00794     H ( 1.00)

     No symmetry found



   Cartesian axes

     site n.     atom                  positions (alat units)
         1           N1  tau(   1) = (   0.2614857   0.4529065   9.6075984  )
         2           N1  tau(   2) = (  -1.3074285   3.1703457   9.6075984  )
         3           N1  tau(   3) = (   3.3993142   0.4529065   9.6075984  )
         4           N1  tau(   4) = (   1.8304000   3.1703457   9.6075984  )
         5           Nb1 tau(   5) = (   3.3993142   4.0761588  10.8886115  )
         6           Nb1 tau(   6) = (   0.2614857   4.0761588  10.8886115  )
         7           Nb1 tau(   7) = (   4.9682284   1.3587196  10.8886115  )
         8           Nb1 tau(   8) = (   1.8304000   1.3587196  10.8886115  )
         9           N1  tau(   9) = (   3.3993142   2.2645327  12.1696246  )
        10           N1  tau(  10) = (  -1.3074285   4.9819718  12.1696246  )
        11           N1  tau(  11) = (   1.8304000   4.9819718  12.1696246  )
        12           N1  tau(  12) = (   0.2614857   2.2645327  12.1696246  )
        13           Nb1 tau(  13) = (  -1.3074285   3.1703457  13.4506377  )
        14           Nb1 tau(  14) = (   1.8304000   3.1703457  13.4506377  )
        15           Nb1 tau(  15) = (   3.3993142   0.4529065  13.4506377  )
        16           Nb1 tau(  16) = (   0.2614857   0.4529065  13.4506377  )
        17           N1  tau(  17) = (   5.0177172   1.3836353  14.7400920  )
        18           N1  tau(  18) = (   1.7570327   1.4175848  14.7945698  )
        19           N1  tau(  19) = (   0.2673401   3.9855243  14.7873796  )
        20           N1  tau(  20) = (   3.3807070   4.0675625  14.8344530  )
        21           Nb1 tau(  21) = (  -1.2192942   5.0375822  15.9664539  )
        22           Nb1 tau(  22) = (   3.4240362   2.1414472  16.0263543  )
        23           Nb1 tau(  23) = (   1.7213229   5.0554972  16.0261827  )
        24           Nb1 tau(  24) = (   0.1789045   2.2257549  16.2114131  )
        25           N1  tau(  25) = (   3.3353209   0.4233803  17.4752216  )
        26           N1  tau(  26) = (   0.2461035   0.2980845  17.3332011  )
        27           N1  tau(  27) = (  -1.4526552   3.2501258  17.3390508  )
        28           N1  tau(  28) = (   1.8709406   3.1946329  17.3353570  )
        29           Nb1 tau(  29) = (   5.0058072   1.3912662  18.5443028  )
        30           Nb1 tau(  30) = (   3.3657417   4.0642218  18.7935336  )
        31           Nb1 tau(  31) = (   1.6643906   1.3894585  18.6041556  )
        32           Nb1 tau(  32) = (   0.2075864   3.9289151  18.6024539  )
        33           N1  tau(  33) = (  -1.2587294   5.0140717  19.9155400  )
        34           N1  tau(  34) = (   1.6989411   5.0127249  19.8796337  )
        35           N1  tau(  35) = (   3.3529295   2.1471611  19.8772340  )
        36           Nb1 tau(  36) = (   3.3227723   0.4189295  21.1777760  )
        37           Nb1 tau(  37) = (   1.7893100   3.1531422  21.0635683  )
        38           Nb1 tau(  38) = (  -1.4102304   3.1718296  21.0575508  )
        39           Nb1 tau(  39) = (   0.2036141   0.3800863  21.0515042  )
        40           N1  tau(  40) = (   0.1651946   2.2219340  20.0325998  )
        41           H1  tau(  41) = (   0.1942603   3.9959165  22.1169816  )
        42           H1  tau(  42) = (   1.7185035   1.3445883  22.1149422  )

     number of k points=    10  Fermi-Dirac smearing, width (Ry)=  0.0073
                       cart. coord. in units 2pi/alat
        k(    1) = (   0.0000000   0.0000000   0.0000000), wk =   0.1250000
        k(    2) = (   0.0000000   0.0459992   0.0000000), wk =   0.2500000
        k(    3) = (  -0.0000000  -0.0919984  -0.0000000), wk =   0.1250000
        k(    4) = (   0.0398365   0.0229996   0.0000000), wk =   0.2500000
        k(    5) = (   0.0398365   0.0689988   0.0000000), wk =   0.2500000
        k(    6) = (   0.0398365  -0.0689988  -0.0000000), wk =   0.2500000
        k(    7) = (   0.0398365  -0.0229996  -0.0000000), wk =   0.2500000
        k(    8) = (  -0.0796729  -0.0459992  -0.0000000), wk =   0.1250000
        k(    9) = (  -0.0796729  -0.0000000  -0.0000000), wk =   0.2500000
        k(   10) = (  -0.0796729  -0.1379976  -0.0000000), wk =   0.1250000

     Dense  grid:   841657 G-vectors     FFT dimensions: (  75,  75, 360)

     Smooth grid:   212889 G-vectors     FFT dimensions: (  45,  45, 225)

     Estimated max dynamical RAM per process >     151.22MB

     Estimated total allocated dynamical RAM >    2419.48MB

     Initial potential from superposition of free atoms
     Check: negative starting charge=   -0.006432

     starting charge  361.94514, renormalised to  362.00000

     negative rho (up, down):  6.433E-03 0.000E+00

     Adding external electric field

     Computed dipole along edir(3) : 
        Dipole                0.0321 Ry au,          0.0817 Debye
        Dipole field          0.0001 Ry au, 

        Potential amp.       -0.0065 Ry
        Total length         56.6459 bohr

     Starting wfc are  342 randomized atomic wfcs

     total cpu time spent up to now is       22.4 secs

     per-process dynamical memory:   147.0 Mb

     Self-consistent Calculation

     iteration #  1     ecut=    36.75 Ry     beta=0.10
     Davidson diagonalization with overlap
     ethr =  1.00E-02,  avg # of iterations =  2.0

     negative rho (up, down):  6.249E-03 0.000E+00

     Adding external electric field

     Computed dipole along edir(3) : 
        Dipole                4.7888 Ry au,         12.1719 Debye
        Dipole field          0.0085 Ry au, 

        Potential amp.       -0.9634 Ry
        Total length         56.6459 bohr


     total cpu time spent up to now is       60.6 secs

     total energy              =   -2766.75638491 Ry
     Harris-Foulkes estimate   =   -2772.00874379 Ry
     estimated scf accuracy    <      30.65575437 Ry

     iteration #  2     ecut=    36.75 Ry     beta=0.10
     Davidson diagonalization with overlap
     ethr =  8.47E-03,  avg # of iterations =  6.6

     negative rho (up, down):  6.245E-03 0.000E+00

     Adding external electric field

     Computed dipole along edir(3) : 
        Dipole                0.5749 Ry au,          1.4614 Debye
        Dipole field          0.0010 Ry au, 

        Potential amp.       -0.1157 Ry
        Total length         56.6459 bohr


     total cpu time spent up to now is      123.5 secs

     total energy              =   -2754.85316292 Ry
     Harris-Foulkes estimate   =   -2778.58974993 Ry
     estimated scf accuracy    <    1707.81047377 Ry

     iteration #  3     ecut=    36.75 Ry     beta=0.10
     Davidson diagonalization with overlap
     ethr =  8.47E-03,  avg # of iterations =  8.1

     negative rho (up, down):  6.061E-03 0.000E+00

     Adding external electric field

     Computed dipole along edir(3) : 
        Dipole                0.9519 Ry au,          2.4196 Debye
        Dipole field          0.0017 Ry au, 

        Potential amp.       -0.1915 Ry
        Total length         56.6459 bohr


     total cpu time spent up to now is      205.2 secs

     total energy              =   -2766.76537789 Ry
     Harris-Foulkes estimate   =   -2769.09061387 Ry
     estimated scf accuracy    <      59.94329768 Ry

     iteration #  4     ecut=    36.75 Ry     beta=0.10
     Davidson diagonalization with overlap
     ethr =  8.47E-03,  avg # of iterations =  2.3

     negative rho (up, down):  5.963E-03 0.000E+00

     Adding external electric field

     Computed dipole along edir(3) : 
        Dipole                1.0641 Ry au,          2.7047 Debye
        Dipole field          0.0019 Ry au, 

        Potential amp.       -0.2141 Ry
        Total length         56.6459 bohr


     total cpu time spent up to now is      240.6 secs

     total energy              =   -2766.25479921 Ry
     Harris-Foulkes estimate   =   -2768.11087920 Ry
     estimated scf accuracy    <      18.91021472 Ry

     iteration #  5     ecut=    36.75 Ry     beta=0.10
     Davidson diagonalization with overlap
     ethr =  5.22E-03,  avg # of iterations =  1.0

     negative rho (up, down):  5.900E-03 0.000E+00

     Adding external electric field

     Computed dipole along edir(3) : 
        Dipole                1.3176 Ry au,          3.3490 Debye
        Dipole field          0.0023 Ry au, 

        Potential amp.       -0.2651 Ry
        Total length         56.6459 bohr


     total cpu time spent up to now is      272.2 secs

     total energy              =   -2766.46141072 Ry
     Harris-Foulkes estimate   =   -2766.98343777 Ry
     estimated scf accuracy    <       2.45081569 Ry

     iteration #  6     ecut=    36.75 Ry     beta=0.10
     Davidson diagonalization with overlap
     ethr =  6.77E-04,  avg # of iterations =  5.1

     negative rho (up, down):  6.026E-03 0.000E+00

     Adding external electric field

     Computed dipole along edir(3) : 
        Dipole                1.0660 Ry au,          2.7095 Debye
        Dipole field          0.0019 Ry au, 

        Potential amp.       -0.2145 Ry
        Total length         56.6459 bohr


     total cpu time spent up to now is      331.7 secs

     total energy              =   -2766.74610165 Ry
     Harris-Foulkes estimate   =   -2766.83161792 Ry
     estimated scf accuracy    <       0.58314850 Ry

     iteration #  7     ecut=    36.75 Ry     beta=0.10
     Davidson diagonalization with overlap
     ethr =  1.61E-04,  avg # of iterations =  6.0

     negative rho (up, down):  6.118E-03 0.000E+00

     Adding external electric field

     Computed dipole along edir(3) : 
        Dipole                1.0281 Ry au,          2.6131 Debye
        Dipole field          0.0018 Ry au, 

        Potential amp.       -0.2068 Ry
        Total length         56.6459 bohr


     total cpu time spent up to now is      384.8 secs

     total energy              =   -2766.76512662 Ry
     Harris-Foulkes estimate   =   -2766.80467730 Ry
     estimated scf accuracy    <       0.44541825 Ry

     iteration #  8     ecut=    36.75 Ry     beta=0.10
     Davidson diagonalization with overlap
     ethr =  1.23E-04,  avg # of iterations =  1.1

     negative rho (up, down):  6.485E-03 0.000E+00

     Adding external electric field

     Computed dipole along edir(3) : 
        Dipole                1.0013 Ry au,          2.5450 Debye
        Dipole field          0.0018 Ry au, 

        Potential amp.       -0.2014 Ry
        Total length         56.6459 bohr


     total cpu time spent up to now is      416.8 secs

     total energy              =   -2766.72109506 Ry
     Harris-Foulkes estimate   =   -2766.77232138 Ry
     estimated scf accuracy    <       0.22916363 Ry

     iteration #  9     ecut=    36.75 Ry     beta=0.10
     Davidson diagonalization with overlap
     ethr =  6.33E-05,  avg # of iterations = 10.2

     negative rho (up, down):  6.552E-03 0.000E+00

     Adding external electric field

     Computed dipole along edir(3) : 
        Dipole                0.9134 Ry au,          2.3216 Debye
        Dipole field          0.0016 Ry au, 

        Potential amp.       -0.1838 Ry
        Total length         56.6459 bohr


     total cpu time spent up to now is      505.6 secs

     total energy              =   -2766.70935236 Ry
     Harris-Foulkes estimate   =   -2766.76620525 Ry
     estimated scf accuracy    <       0.24826238 Ry

     iteration # 10     ecut=    36.75 Ry     beta=0.10
     Davidson diagonalization with overlap
     ethr =  6.33E-05,  avg # of iterations =  3.0

     negative rho (up, down):  6.732E-03 0.000E+00

     Adding external electric field

     Computed dipole along edir(3) : 
        Dipole                1.0003 Ry au,          2.5425 Debye
        Dipole field          0.0018 Ry au, 

        Potential amp.       -0.2012 Ry
        Total length         56.6459 bohr


     total cpu time spent up to now is      555.3 secs

     total energy              =   -2766.73987729 Ry
     Harris-Foulkes estimate   =   -2766.76698759 Ry
     estimated scf accuracy    <       0.27506304 Ry

     iteration # 11     ecut=    36.75 Ry     beta=0.10
     Davidson diagonalization with overlap
     ethr =  6.33E-05,  avg # of iterations =  2.2

     negative rho (up, down):  6.818E-03 0.000E+00

     Adding external electric field

     Computed dipole along edir(3) : 
        Dipole                1.0564 Ry au,          2.6852 Debye
        Dipole field          0.0019 Ry au, 

        Potential amp.       -0.2125 Ry
        Total length         56.6459 bohr


     total cpu time spent up to now is      590.2 secs

     total energy              =   -2766.74008434 Ry
     Harris-Foulkes estimate   =   -2766.74727820 Ry
     estimated scf accuracy    <       0.05985884 Ry

     iteration # 12     ecut=    36.75 Ry     beta=0.10
     Davidson diagonalization with overlap
     ethr =  1.65E-05,  avg # of iterations =  4.0

     negative rho (up, down):  6.880E-03 0.000E+00

     Adding external electric field

     Computed dipole along edir(3) : 
        Dipole                1.0401 Ry au,          2.6437 Debye
        Dipole field          0.0018 Ry au, 

        Potential amp.       -0.2093 Ry
        Total length         56.6459 bohr


     total cpu time spent up to now is      642.4 secs

     total energy              =   -2766.74702195 Ry
     Harris-Foulkes estimate   =   -2766.74991453 Ry
     estimated scf accuracy    <       0.01811160 Ry

     iteration # 13     ecut=    36.75 Ry     beta=0.10
     Davidson diagonalization with overlap
     c_bands:  1 eigenvalues not converged
     ethr =  5.00E-06,  avg # of iterations = 11.0

     negative rho (up, down):  6.909E-03 0.000E+00

     Adding external electric field

     Computed dipole along edir(3) : 
        Dipole                1.0421 Ry au,          2.6488 Debye
        Dipole field          0.0019 Ry au, 

        Potential amp.       -0.2097 Ry
        Total length         56.6459 bohr


     total cpu time spent up to now is      710.0 secs

     total energy              =   -2766.74761383 Ry
     Harris-Foulkes estimate   =   -2766.74817094 Ry
     estimated scf accuracy    <       0.00339809 Ry

     iteration # 14     ecut=    36.75 Ry     beta=0.10
     Davidson diagonalization with overlap
     c_bands:  1 eigenvalues not converged
     ethr =  9.39E-07,  avg # of iterations =  7.3

     negative rho (up, down):  6.928E-03 0.000E+00

     Adding external electric field

     Computed dipole along edir(3) : 
        Dipole                1.0313 Ry au,          2.6212 Debye
        Dipole field          0.0018 Ry au, 

        Potential amp.       -0.2075 Ry
        Total length         56.6459 bohr


     total cpu time spent up to now is      787.4 secs

     total energy              =   -2766.74802600 Ry
     Harris-Foulkes estimate   =   -2766.74851092 Ry
     estimated scf accuracy    <       0.00363064 Ry

     iteration # 15     ecut=    36.75 Ry     beta=0.10
     Davidson diagonalization with overlap
     ethr =  9.39E-07,  avg # of iterations =  2.5

     negative rho (up, down):  6.945E-03 0.000E+00

     Adding external electric field

     Computed dipole along edir(3) : 
        Dipole                1.0386 Ry au,          2.6398 Debye
        Dipole field          0.0018 Ry au, 

        Potential amp.       -0.2089 Ry
        Total length         56.6459 bohr


     total cpu time spent up to now is      823.1 secs

     total energy              =   -2766.74804131 Ry
     Harris-Foulkes estimate   =   -2766.74815176 Ry
     estimated scf accuracy    <       0.00131473 Ry

     iteration # 16     ecut=    36.75 Ry     beta=0.10
     Davidson diagonalization with overlap
     ethr =  3.63E-07,  avg # of iterations =  3.7

     negative rho (up, down):  6.955E-03 0.000E+00

     Adding external electric field

     Computed dipole along edir(3) : 
        Dipole                1.0373 Ry au,          2.6365 Debye
        Dipole field          0.0018 Ry au, 

        Potential amp.       -0.2087 Ry
        Total length         56.6459 bohr


     total cpu time spent up to now is      874.7 secs

     total energy              =   -2766.74821549 Ry
     Harris-Foulkes estimate   =   -2766.74824692 Ry
     estimated scf accuracy    <       0.00057662 Ry

     iteration # 17     ecut=    36.75 Ry     beta=0.10
     Davidson diagonalization with overlap
     ethr =  1.59E-07,  avg # of iterations =  1.0

     negative rho (up, down):  6.961E-03 0.000E+00

     Adding external electric field

     Computed dipole along edir(3) : 
        Dipole                1.0325 Ry au,          2.6243 Debye
        Dipole field          0.0018 Ry au, 

        Potential amp.       -0.2077 Ry
        Total length         56.6459 bohr


     total cpu time spent up to now is      906.4 secs

     total energy              =   -2766.74815606 Ry
     Harris-Foulkes estimate   =   -2766.74824311 Ry
     estimated scf accuracy    <       0.00028646 Ry

     iteration # 18     ecut=    36.75 Ry     beta=0.10
     Davidson diagonalization with overlap
     ethr =  7.91E-08,  avg # of iterations =  3.1

     negative rho (up, down):  6.968E-03 0.000E+00

     Adding external electric field

     Computed dipole along edir(3) : 
        Dipole                1.0325 Ry au,          2.6243 Debye
        Dipole field          0.0018 Ry au, 

        Potential amp.       -0.2077 Ry
        Total length         56.6459 bohr


     total cpu time spent up to now is      954.9 secs

     total energy              =   -2766.74819524 Ry
     Harris-Foulkes estimate   =   -2766.74820761 Ry
     estimated scf accuracy    <       0.00008258 Ry

     iteration # 19     ecut=    36.75 Ry     beta=0.10
     Davidson diagonalization with overlap
     ethr =  2.28E-08,  avg # of iterations =  3.2

     negative rho (up, down):  6.975E-03 0.000E+00

     Adding external electric field

     Computed dipole along edir(3) : 
        Dipole                1.0315 Ry au,          2.6218 Debye
        Dipole field          0.0018 Ry au, 

        Potential amp.       -0.2075 Ry
        Total length         56.6459 bohr


     total cpu time spent up to now is      998.9 secs

     total energy              =   -2766.74820531 Ry
     Harris-Foulkes estimate   =   -2766.74820910 Ry
     estimated scf accuracy    <       0.00001510 Ry

     iteration # 20     ecut=    36.75 Ry     beta=0.10
     Davidson diagonalization with overlap
     ethr =  4.17E-09,  avg # of iterations =  3.1

     negative rho (up, down):  6.981E-03 0.000E+00

     Adding external electric field

     Computed dipole along edir(3) : 
        Dipole                1.0318 Ry au,          2.6227 Debye
        Dipole field          0.0018 Ry au, 

        Potential amp.       -0.2076 Ry
        Total length         56.6459 bohr


     total cpu time spent up to now is     1046.1 secs

     total energy              =   -2766.74820792 Ry
     Harris-Foulkes estimate   =   -2766.74820638 Ry
     estimated scf accuracy    <       0.00000724 Ry

     iteration # 21     ecut=    36.75 Ry     beta=0.10
     Davidson diagonalization with overlap
     ethr =  2.00E-09,  avg # of iterations =  3.1

     negative rho (up, down):  6.987E-03 0.000E+00

     Adding external electric field

     Computed dipole along edir(3) : 
        Dipole                1.0315 Ry au,          2.6218 Debye
        Dipole field          0.0018 Ry au, 

        Potential amp.       -0.2075 Ry
        Total length         56.6459 bohr


     total cpu time spent up to now is     1089.1 secs

     total energy              =   -2766.74821011 Ry
     Harris-Foulkes estimate   =   -2766.74821005 Ry
     estimated scf accuracy    <       0.00000244 Ry

     iteration # 22     ecut=    36.75 Ry     beta=0.10
     Davidson diagonalization with overlap
     ethr =  6.74E-10,  avg # of iterations =  3.8

     negative rho (up, down):  6.992E-03 0.000E+00

     Adding external electric field

     Computed dipole along edir(3) : 
        Dipole                1.0315 Ry au,          2.6219 Debye
        Dipole field          0.0018 Ry au, 

        Potential amp.       -0.2075 Ry
        Total length         56.6459 bohr


     total cpu time spent up to now is     1137.9 secs

     total energy              =   -2766.74821042 Ry
     Harris-Foulkes estimate   =   -2766.74821027 Ry
     estimated scf accuracy    <       0.00000347 Ry

     iteration # 23     ecut=    36.75 Ry     beta=0.10
     Davidson diagonalization with overlap
     ethr =  6.74E-10,  avg # of iterations =  3.1

     negative rho (up, down):  7.055E-03 0.000E+00

     Adding external electric field

     Computed dipole along edir(3) : 
        Dipole                1.0317 Ry au,          2.6223 Debye
        Dipole field          0.0018 Ry au, 

        Potential amp.       -0.2076 Ry
        Total length         56.6459 bohr


     total cpu time spent up to now is     1183.5 secs

     End of self-consistent calculation

          k = 0.0000 0.0000 0.0000 ( 26765 PWs)   bands (ev):

   -51.3974 -51.3688 -51.3271 -51.3209 -51.3169 -51.2928 -51.2666 -51.2573
   -51.2253 -51.2064 -51.1791 -51.1553 -51.1012 -51.1007 -51.0846 -51.0289
   -51.0239 -50.7690 -50.7163 -50.6931 -27.9757 -27.9531 -27.9503 -27.9127
   -27.8944 -27.8745 -27.8605 -27.8192 -27.8081 -27.7965 -27.7187 -27.6237
   -27.6203 -27.6114 -27.5924 -27.5168 -27.4718 -27.4087 -27.3883 -27.3822
   -27.3710 -27.3402 -27.3285 -27.3065 -27.3055 -27.2846 -27.2799 -27.2702
   -27.2671 -27.2324 -27.2189 -27.1910 -27.1825 -27.1531 -27.1293 -27.1204
   -27.1174 -27.1041 -27.0929 -27.0830 -27.0781 -27.0697 -27.0639 -27.0455
   -27.0362 -27.0221 -27.0195 -26.9869 -26.9830 -26.9473 -26.8941 -26.8940
   -26.8240 -26.8143 -26.7953 -26.7879 -26.7124 -26.6765 -26.5755 -26.5246
   -12.0679 -11.6612 -11.3999 -11.3912 -11.3550 -11.1450 -11.1063 -11.0411
   -10.8937 -10.6415 -10.5944 -10.5547 -10.2279 -10.0902 -10.0629 -10.0512
    -7.9831  -7.5447  -7.5387  -7.5283  -3.4449  -3.4355  -3.4144  -3.3659
    -2.8099  -2.8023  -2.7618  -2.5549  -1.8545  -1.7982  -1.7730  -1.6154
    -1.6083  -1.4838  -1.4773  -1.4662  -1.4573  -1.4396  -1.4121  -1.2924
    -1.2619  -1.2548  -1.2158  -1.0922  -1.0855  -1.0710  -1.0366  -0.9918
    -0.9902  -0.9442  -0.9070  -0.7143  -0.7026  -0.6716  -0.3303  -0.2585
    -0.2079  -0.1815  -0.1658  -0.0209   0.0580   0.0853   0.1721   0.3764
     0.5993   0.6409   0.7163   0.7184   0.7605   0.8804   1.0058   1.1321
     1.1736   1.8694   1.9309   1.9361   2.2679   2.2873   2.2897   2.5244
     3.0586   3.1223   3.1352   3.1949   3.2222   3.3728   3.3742   3.3812
     3.6304   3.6456   3.7560   3.9628   4.0691   4.1043   4.1111   4.1958
     4.2218   4.4471   4.5781   4.8070   4.9661   5.0209   5.2845   5.3139
     5.4107   5.5204   5.5389   5.7857   5.8760   5.8906   5.9800   6.0130
     6.2875   6.3612   6.3779   6.3834   6.4194   6.4429   6.5629   6.6065
     6.6491

          k = 0.0000 0.0460 0.0000 ( 26646 PWs)   bands (ev):

   -51.3863 -51.3582 -51.3319 -51.3249 -51.3148 -51.2995 -51.2681 -51.2583
   -51.2288 -51.2075 -51.1754 -51.1504 -51.1086 -51.1010 -51.0868 -51.0292
   -51.0231 -50.7667 -50.7154 -50.6978 -27.9157 -27.8942 -27.8722 -27.8663
   -27.8336 -27.8195 -27.7892 -27.7770 -27.7627 -27.7468 -27.6928 -27.6234
   -27.5985 -27.5866 -27.5556 -27.5107 -27.4771 -27.4299 -27.4119 -27.4035
   -27.3975 -27.3769 -27.3555 -27.3437 -27.3059 -27.2996 -27.2897 -27.2604
   -27.2515 -27.2291 -27.2175 -27.2133 -27.1889 -27.1847 -27.1627 -27.1540
   -27.1367 -27.1248 -27.0964 -27.0880 -27.0814 -27.0790 -27.0775 -27.0648
   -27.0609 -27.0403 -27.0342 -27.0073 -26.9932 -26.9821 -26.9544 -26.9138
   -26.8489 -26.8207 -26.8064 -26.7858 -26.7304 -26.6871 -26.6213 -26.5717
   -11.8334 -11.5168 -11.2947 -11.2527 -11.2103 -11.0810 -11.0251 -10.9813
   -10.8626 -10.7098 -10.6434 -10.6153 -10.3930 -10.2757 -10.2505 -10.1866
    -7.9629  -7.6571  -7.5788  -7.5669  -3.1364  -3.0862  -3.0721  -2.9797
    -2.6380  -2.6082  -2.5273  -2.4921  -2.0345  -1.8717  -1.8308  -1.7525
    -1.5124  -1.4479  -1.4186  -1.3698  -1.3497  -1.3175  -1.2966  -1.2430
    -1.2301  -1.2005  -1.1678  -1.1401  -1.0866  -1.0482  -0.9810  -0.9652
    -0.9335  -0.8982  -0.8554  -0.7627  -0.7037  -0.6656  -0.6109  -0.5573
    -0.5162  -0.2748  -0.2318  -0.1877  -0.1410  -0.0623  -0.0389   0.0411
     0.1598   0.4509   0.5259   0.5662   0.8195   0.8953   0.9517   1.2705
     1.3045   1.8484   1.9465   2.0405   2.1129   2.3621   2.4831   2.5133
     2.8098   3.0480   3.1275   3.2097   3.2749   3.2843   3.3374   3.5788
     3.6091   3.7403   3.8445   4.0158   4.0653   4.2177   4.2915   4.3581
     4.3859   4.4366   4.5575   4.8234   5.0009   5.0703   5.2310   5.2770
     5.3889   5.4787   5.6436   5.6990   5.7352   5.8209   5.8685   5.9603
     5.9677   6.0099   6.1091   6.2013   6.2564   6.3064   6.3820   6.4371
     6.4634

          k =-0.0000-0.0920-0.0000 ( 26584 PWs)   bands (ev):

   -51.3669 -51.3500 -51.3382 -51.3256 -51.3209 -51.3067 -51.2677 -51.2598
   -51.2324 -51.2085 -51.1734 -51.1338 -51.1273 -51.1010 -51.0881 -51.0298
   -51.0221 -50.7641 -50.7135 -50.7038 -27.8306 -27.7953 -27.7919 -27.7732
   -27.7661 -27.7533 -27.7517 -27.7144 -27.7096 -27.6626 -27.6201 -27.6045
   -27.5897 -27.5876 -27.5500 -27.5341 -27.5197 -27.4908 -27.4831 -27.4402
   -27.4335 -27.4022 -27.3809 -27.3645 -27.3044 -27.2824 -27.2634 -27.2615
   -27.2587 -27.2410 -27.2293 -27.2159 -27.2150 -27.1994 -27.1930 -27.1856
   -27.1627 -27.1534 -27.1482 -27.1347 -27.1066 -27.0916 -27.0853 -27.0739
   -27.0628 -27.0532 -27.0351 -27.0296 -26.9965 -26.9701 -26.9633 -26.9586
   -26.8862 -26.8362 -26.8165 -26.8044 -26.7499 -26.7277 -26.6383 -26.6181
   -11.3730 -11.3304 -11.2336 -11.1681 -10.9745 -10.9645 -10.9263 -10.8943
   -10.8339 -10.8103 -10.7477 -10.7022 -10.6121 -10.5204 -10.5068 -10.3832
    -7.8622  -7.8506  -7.6132  -7.6013  -2.7468  -2.6050  -2.5452  -2.4370
    -2.3193  -2.3063  -2.2766  -2.1247  -2.0885  -1.9557  -1.8854  -1.8354
    -1.7565  -1.5843  -1.5143  -1.4421  -1.3835  -1.3766  -1.3316  -1.3238
    -1.2665  -1.2285  -1.1654  -1.1052  -1.0766  -1.0626  -1.0480  -0.9772
    -0.9115  -0.9003  -0.8225  -0.8072  -0.7680  -0.6820  -0.6634  -0.5753
    -0.5717  -0.5348  -0.4105  -0.3792  -0.3492  -0.2654  -0.1013  -0.0954
    -0.0320   0.1120   0.3390   0.3899   0.6250   0.8014   1.3107   1.3212
     1.3270   1.4796   1.9092   2.1251   2.5946   2.6537   2.6862   2.7380
     2.9988   3.0817   3.0980   3.1105   3.1748   3.2810   3.3637   3.4658
     3.5698   3.6053   3.7512   3.8944   3.9953   4.0950   4.3185   4.4609
     4.5237   4.5920   4.6364   4.7320   4.8909   4.9672   4.9856   5.0684
     5.1606   5.2540   5.3185   5.3518   5.5269   5.6044   5.6830   5.7467
     5.7511   5.8459   6.0247   6.1324   6.2738   6.3160   6.3804   6.4466
     6.4693

          k = 0.0398 0.0230 0.0000 ( 26646 PWs)   bands (ev):

   -51.3861 -51.3579 -51.3341 -51.3209 -51.3158 -51.3005 -51.2667 -51.2621
   -51.2253 -51.2088 -51.1755 -51.1504 -51.1087 -51.1007 -51.0869 -51.0292
   -51.0232 -50.7638 -50.7227 -50.6934 -27.9198 -27.8896 -27.8732 -27.8615
   -27.8389 -27.8064 -27.7918 -27.7762 -27.7596 -27.7518 -27.6932 -27.6226
   -27.5945 -27.5839 -27.5530 -27.5031 -27.4868 -27.4248 -27.4193 -27.4036
   -27.3963 -27.3764 -27.3598 -27.3553 -27.3158 -27.3018 -27.2880 -27.2595
   -27.2523 -27.2296 -27.2201 -27.2131 -27.2107 -27.1906 -27.1510 -27.1491
   -27.1392 -27.1173 -27.0900 -27.0858 -27.0802 -27.0771 -27.0746 -27.0632
   -27.0597 -27.0402 -27.0199 -27.0067 -26.9946 -26.9850 -26.9610 -26.9138
   -26.8181 -26.8100 -26.8015 -26.7961 -26.7483 -26.7053 -26.6619 -26.5334
   -11.8315 -11.5169 -11.2950 -11.2577 -11.1889 -11.0883 -11.0436 -10.9556
   -10.8646 -10.7152 -10.6486 -10.5981 -10.4143 -10.2808 -10.2469 -10.1842
    -7.9629  -7.6576  -7.5746  -7.5706  -3.1327  -3.0879  -3.0838  -2.9690
    -2.6470  -2.6251  -2.5154  -2.4845  -2.0306  -1.8643  -1.8279  -1.7208
    -1.5263  -1.4563  -1.4108  -1.3808  -1.3270  -1.3151  -1.3069  -1.2483
    -1.2350  -1.1850  -1.1629  -1.1270  -1.0974  -1.0595  -0.9888  -0.9806
    -0.9274  -0.8619  -0.8557  -0.7698  -0.6882  -0.6828  -0.6000  -0.5781
    -0.4855  -0.3089  -0.2637  -0.2029  -0.1676  -0.0620   0.0071   0.0270
     0.2348   0.4174   0.4770   0.6321   0.7700   0.9223   0.9527   1.2666
     1.2994   1.8319   1.9033   2.0208   2.1620   2.3344   2.4814   2.5279
     2.7922   3.0472   3.1205   3.2449   3.2613   3.2835   3.3083   3.5643
     3.6278   3.7445   3.8370   3.9829   4.0545   4.1891   4.2824   4.4016
     4.4127   4.4369   4.5591   4.7865   4.9754   5.0680   5.2463   5.2576
     5.3745   5.5205   5.6977   5.7307   5.7537   5.8149   5.8336   5.9721
     6.0138   6.0666   6.1038   6.2033   6.2679   6.3077   6.3858   6.4340
     6.4468

          k = 0.0398 0.0690 0.0000 ( 26589 PWs)   bands (ev):

   -51.3683 -51.3454 -51.3402 -51.3282 -51.3158 -51.3094 -51.2685 -51.2627
   -51.2285 -51.2097 -51.1735 -51.1375 -51.1175 -51.1098 -51.0854 -51.0297
   -51.0222 -50.7605 -50.7239 -50.6970 -27.8375 -27.8021 -27.7857 -27.7630
   -27.7447 -27.7388 -27.7316 -27.7050 -27.6858 -27.6698 -27.6586 -27.6412
   -27.6245 -27.6007 -27.5576 -27.5296 -27.5170 -27.4939 -27.4587 -27.4308
   -27.4197 -27.3842 -27.3730 -27.3508 -27.3129 -27.3028 -27.2964 -27.2915
   -27.2689 -27.2535 -27.2330 -27.2219 -27.2186 -27.1909 -27.1820 -27.1758
   -27.1704 -27.1498 -27.1304 -27.1156 -27.0911 -27.0785 -27.0678 -27.0634
   -27.0563 -27.0474 -27.0300 -27.0230 -27.0170 -27.0027 -26.9617 -26.9566
   -26.8843 -26.8291 -26.8110 -26.8013 -26.7560 -26.7391 -26.6885 -26.5795
   -11.4500 -11.3113 -11.1625 -11.0757 -11.0333 -10.9733 -10.9143 -10.8823
   -10.8422 -10.8134 -10.7574 -10.7117 -10.6472 -10.5540 -10.4676 -10.3829
    -7.8986  -7.7470  -7.7345  -7.5487  -2.6634  -2.5699  -2.5277  -2.4957
    -2.3492  -2.3303  -2.3149  -2.1425  -2.1030  -2.0542  -1.8868  -1.8589
    -1.6661  -1.6063  -1.5617  -1.4696  -1.4316  -1.4100  -1.3200  -1.2498
    -1.2124  -1.1603  -1.1065  -1.0820  -1.0276  -1.0124  -0.9991  -0.9356
    -0.9037  -0.8781  -0.8434  -0.8113  -0.7227  -0.6862  -0.6400  -0.5834
    -0.5340  -0.4769  -0.4004  -0.3666  -0.2909  -0.2357  -0.2021  -0.1423
    -0.0105   0.0738   0.1685   0.2421   0.4318   0.5692   1.3370   1.3423
     1.3592   1.5659   2.1279   2.2220   2.5604   2.6201   2.7151   2.7647
     2.8387   2.9877   3.1657   3.1990   3.2430   3.3124   3.3392   3.4334
     3.5973   3.6700   3.7600   3.8152   3.9253   4.1383   4.2083   4.3895
     4.4612   4.5203   4.5811   4.7425   4.8163   4.9395   5.0216   5.1709
     5.2488   5.3928   5.4666   5.5546   5.6619   5.7478   5.8157   5.9258
     5.9628   6.0233   6.0954   6.1721   6.1888   6.2857   6.3206   6.3986
     6.4283

          k = 0.0398-0.0690-0.0000 ( 26589 PWs)   bands (ev):

   -51.3688 -51.3439 -51.3405 -51.3306 -51.3134 -51.3114 -51.2679 -51.2592
   -51.2323 -51.2087 -51.1735 -51.1375 -51.1171 -51.1102 -51.0853 -51.0298
   -51.0221 -50.7633 -50.7170 -50.7012 -27.8351 -27.7971 -27.7946 -27.7659
   -27.7486 -27.7379 -27.7218 -27.7157 -27.6888 -27.6750 -27.6599 -27.6443
   -27.6322 -27.6006 -27.5593 -27.5284 -27.5133 -27.4884 -27.4514 -27.4357
   -27.4219 -27.3767 -27.3569 -27.3435 -27.3161 -27.3044 -27.2908 -27.2853
   -27.2690 -27.2461 -27.2322 -27.2292 -27.2110 -27.1877 -27.1819 -27.1709
   -27.1589 -27.1435 -27.1383 -27.1285 -27.1134 -27.0820 -27.0703 -27.0672
   -27.0546 -27.0468 -27.0370 -27.0220 -27.0166 -27.0004 -26.9611 -26.9554
   -26.9269 -26.8274 -26.8173 -26.7956 -26.7211 -26.7131 -26.6487 -26.6385
   -11.4540 -11.3116 -11.1842 -11.0423 -11.0314 -10.9726 -10.9354 -10.8938
   -10.8565 -10.8129 -10.7678 -10.6789 -10.6522 -10.5286 -10.4876 -10.3710
    -7.8987  -7.7424  -7.7392  -7.5486  -2.6819  -2.5410  -2.5316  -2.4826
    -2.3557  -2.3282  -2.2866  -2.1705  -2.1082  -2.0430  -1.8897  -1.8602
    -1.7225  -1.6117  -1.5789  -1.4770  -1.4226  -1.4075  -1.2967  -1.2695
    -1.1907  -1.1479  -1.1118  -1.0801  -1.0464  -1.0182  -1.0000  -0.9750
    -0.9393  -0.8901  -0.8058  -0.7883  -0.7292  -0.6732  -0.6454  -0.6084
    -0.5201  -0.4478  -0.3978  -0.3674  -0.2857  -0.2012  -0.1775  -0.0903
    -0.0632   0.0122   0.1690   0.3101   0.4771   0.5215   1.3371   1.3407
     1.3664   1.5669   2.1232   2.2308   2.5596   2.6237   2.7280   2.7613
     2.8661   2.9276   3.1517   3.2296   3.2520   3.3025   3.3796   3.4507
     3.6147   3.6700   3.7385   3.7860   3.9987   4.0600   4.2318   4.4049
     4.4252   4.5433   4.5643   4.7977   4.8497   4.9497   5.0499   5.1422
     5.2304   5.3294   5.4381   5.6054   5.6802   5.7480   5.7878   5.8702
     5.9807   6.0202   6.1258   6.1446   6.2152   6.2632   6.2764   6.3805
     6.4279

          k = 0.0398-0.0230-0.0000 ( 26646 PWs)   bands (ev):

   -51.3862 -51.3580 -51.3331 -51.3237 -51.3150 -51.3001 -51.2672 -51.2581
   -51.2290 -51.2076 -51.1755 -51.1504 -51.1084 -51.1012 -51.0868 -51.0292
   -51.0231 -50.7661 -50.7173 -50.6966 -27.9161 -27.8933 -27.8727 -27.8664
   -27.8339 -27.8199 -27.7884 -27.7775 -27.7640 -27.7461 -27.6926 -27.6242
   -27.5986 -27.5856 -27.5554 -27.5108 -27.4772 -27.4297 -27.4129 -27.4026
   -27.3974 -27.3784 -27.3562 -27.3437 -27.3058 -27.3001 -27.2886 -27.2598
   -27.2503 -27.2292 -27.2158 -27.2131 -27.1887 -27.1845 -27.1622 -27.1543
   -27.1357 -27.1259 -27.0978 -27.0879 -27.0820 -27.0787 -27.0768 -27.0648
   -27.0612 -27.0398 -27.0320 -27.0075 -26.9946 -26.9827 -26.9552 -26.9138
   -26.8511 -26.8208 -26.8024 -26.7885 -26.7292 -26.6889 -26.6192 -26.5728
   -11.8338 -11.5171 -11.2931 -11.2516 -11.2137 -11.0813 -11.0250 -10.9809
   -10.8631 -10.7099 -10.6431 -10.6169 -10.3901 -10.2768 -10.2496 -10.1859
    -7.9629  -7.6570  -7.5792  -7.5666  -3.1364  -3.0863  -3.0732  -2.9788
    -2.6377  -2.6068  -2.5301  -2.4902  -2.0345  -1.8738  -1.8289  -1.7526
    -1.5073  -1.4465  -1.4218  -1.3709  -1.3490  -1.3222  -1.2974  -1.2457
    -1.2311  -1.2039  -1.1674  -1.1443  -1.0823  -1.0462  -0.9811  -0.9670
    -0.9330  -0.8993  -0.8612  -0.7591  -0.7029  -0.6588  -0.6078  -0.5575
    -0.5139  -0.2771  -0.2361  -0.1829  -0.1361  -0.0667  -0.0369   0.0432
     0.1592   0.4508   0.5238   0.5647   0.8203   0.8906   0.9575   1.2706
     1.3042   1.8490   1.9491   2.0415   2.1130   2.3638   2.4829   2.5138
     2.8075   3.0479   3.1270   3.2084   3.2716   3.2838   3.3411   3.5793
     3.6078   3.7400   3.8382   4.0161   4.0660   4.2209   4.2931   4.3600
     4.3847   4.4331   4.5558   4.8263   5.0019   5.0614   5.2267   5.2794
     5.3900   5.4789   5.6502   5.7012   5.7316   5.8230   5.8687   5.9524
     5.9647   6.0096   6.1131   6.1967   6.2573   6.3065   6.3860   6.4406
     6.4616

          k =-0.0797-0.0460-0.0000 ( 26584 PWs)   bands (ev):

   -51.3647 -51.3527 -51.3371 -51.3246 -51.3209 -51.3064 -51.2673 -51.2664
   -51.2252 -51.2112 -51.1735 -51.1337 -51.1276 -51.1007 -51.0882 -51.0297
   -51.0223 -50.7559 -50.7318 -50.6936 -27.8403 -27.7930 -27.7826 -27.7738
   -27.7641 -27.7519 -27.7446 -27.7034 -27.6988 -27.6579 -27.6319 -27.6001
   -27.5815 -27.5774 -27.5454 -27.5299 -27.5202 -27.5021 -27.4594 -27.4576
   -27.4491 -27.4350 -27.3806 -27.3742 -27.3113 -27.2886 -27.2770 -27.2700
   -27.2622 -27.2609 -27.2321 -27.2134 -27.2029 -27.1944 -27.1926 -27.1877
   -27.1865 -27.1597 -27.1475 -27.1265 -27.0875 -27.0746 -27.0692 -27.0531
   -27.0510 -27.0498 -27.0320 -27.0263 -27.0134 -26.9643 -26.9578 -26.9398
   -26.8597 -26.8149 -26.8108 -26.8065 -26.8035 -26.7526 -26.7257 -26.5430
   -11.3795 -11.3123 -11.2093 -11.1525 -11.0779 -10.9231 -10.8891 -10.8846
   -10.8190 -10.8127 -10.7091 -10.6967 -10.6808 -10.5543 -10.4755 -10.4007
    -7.8578  -7.8553  -7.6089  -7.6053  -2.7564  -2.5995  -2.5843  -2.3807
    -2.3428  -2.3062  -2.2555  -2.1658  -2.0522  -1.9699  -1.8842  -1.7972
    -1.7159  -1.6210  -1.4744  -1.4489  -1.4018  -1.3717  -1.3090  -1.2943
    -1.2662  -1.2084  -1.1935  -1.1509  -1.0984  -1.0753  -0.9985  -0.9608
    -0.9225  -0.8878  -0.8689  -0.8384  -0.6992  -0.6748  -0.6417  -0.6127
    -0.5540  -0.5375  -0.4465  -0.4232  -0.3209  -0.2364  -0.1209  -0.0535
    -0.0446   0.1000   0.2337   0.4726   0.6619   0.7190   1.3191   1.3220
     1.3581   1.4497   1.9247   2.0741   2.5376   2.6683   2.6727   2.7137
     2.9491   3.0749   3.0978   3.1045   3.3030   3.3361   3.3607   3.4961
     3.5506   3.5956   3.6693   3.8132   4.0194   4.1729   4.2681   4.2816
     4.3768   4.6007   4.6452   4.7533   4.9554   4.9786   5.0222   5.0890
     5.2016   5.2700   5.3517   5.3765   5.5742   5.6105   5.6880   5.7702
     5.7940   5.8850   6.0356   6.1236   6.2431   6.3325   6.3803   6.4207
     6.4870

          k =-0.0797-0.0000-0.0000 ( 26589 PWs)   bands (ev):

   -51.3679 -51.3465 -51.3398 -51.3274 -51.3172 -51.3090 -51.2683 -51.2621
   -51.2288 -51.2098 -51.1735 -51.1375 -51.1173 -51.1100 -51.0853 -51.0297
   -51.0222 -50.7596 -50.7257 -50.6961 -27.8378 -27.8018 -27.7867 -27.7628
   -27.7445 -27.7374 -27.7328 -27.7053 -27.6862 -27.6701 -27.6582 -27.6414
   -27.6250 -27.5991 -27.5587 -27.5316 -27.5160 -27.4938 -27.4592 -27.4305
   -27.4203 -27.3820 -27.3725 -27.3505 -27.3123 -27.3025 -27.2954 -27.2910
   -27.2720 -27.2532 -27.2326 -27.2212 -27.2173 -27.1898 -27.1825 -27.1757
   -27.1691 -27.1520 -27.1303 -27.1167 -27.0905 -27.0789 -27.0679 -27.0640
   -27.0548 -27.0472 -27.0291 -27.0233 -27.0173 -27.0045 -26.9607 -26.9554
   -26.8860 -26.8309 -26.8124 -26.7997 -26.7569 -26.7394 -26.6856 -26.5805
   -11.4510 -11.3118 -11.1624 -11.0727 -11.0316 -10.9788 -10.9133 -10.8812
   -10.8453 -10.8139 -10.7627 -10.7098 -10.6389 -10.5575 -10.4671 -10.3806
    -7.8986  -7.7467  -7.7349  -7.5487  -2.6618  -2.5684  -2.5261  -2.4960
    -2.3541  -2.3310  -2.3150  -2.1408  -2.1039  -2.0544  -1.8893  -1.8574
    -1.6675  -1.6073  -1.5644  -1.4703  -1.4345  -1.4074  -1.3187  -1.2511
    -1.2096  -1.1575  -1.1088  -1.0824  -1.0273  -1.0142  -0.9971  -0.9418
    -0.9064  -0.8761  -0.8429  -0.8075  -0.7231  -0.6818  -0.6421  -0.5843
    -0.5376  -0.4737  -0.3989  -0.3590  -0.2910  -0.2304  -0.2003  -0.1445
    -0.0144   0.0712   0.1705   0.2385   0.4334   0.5697   1.3370   1.3427
     1.3597   1.5659   2.1282   2.2226   2.5607   2.6206   2.7170   2.7641
     2.8417   2.9890   3.1602   3.2003   3.2452   3.3123   3.3396   3.4341
     3.5971   3.6723   3.7558   3.8049   3.9179   4.1437   4.2003   4.3943
     4.4595   4.5143   4.5789   4.7542   4.8132   4.9495   5.0223   5.1726
     5.2447   5.3926   5.4608   5.5541   5.6641   5.7470   5.8178   5.9250
     5.9595   6.0240   6.0950   6.1697   6.1898   6.2894   6.3202   6.3941
     6.4372

          k =-0.0797-0.1380-0.0000 ( 26584 PWs)   bands (ev):

   -51.3657 -51.3521 -51.3366 -51.3257 -51.3224 -51.3068 -51.2664 -51.2593
   -51.2329 -51.2088 -51.1734 -51.1340 -51.1271 -51.1012 -51.0880 -51.0298
   -51.0221 -50.7627 -50.7188 -50.7000 -27.8322 -27.7950 -27.7892 -27.7745
   -27.7690 -27.7533 -27.7475 -27.7167 -27.7128 -27.6610 -27.6196 -27.6048
   -27.5900 -27.5871 -27.5503 -27.5341 -27.5201 -27.4903 -27.4841 -27.4428
   -27.4337 -27.4031 -27.3791 -27.3626 -27.3027 -27.2824 -27.2613 -27.2594
   -27.2581 -27.2395 -27.2278 -27.2165 -27.2128 -27.1989 -27.1930 -27.1850
   -27.1645 -27.1576 -27.1479 -27.1352 -27.1070 -27.0939 -27.0851 -27.0726
   -27.0634 -27.0530 -27.0335 -27.0280 -26.9956 -26.9714 -26.9635 -26.9586
   -26.8899 -26.8424 -26.8180 -26.7960 -26.7578 -26.7170 -26.6433 -26.6168
   -11.3766 -11.3303 -11.2343 -11.1634 -10.9765 -10.9623 -10.9320 -10.8918
   -10.8377 -10.8108 -10.7522 -10.7048 -10.6022 -10.5221 -10.5028 -10.3809
    -7.8626  -7.8502  -7.6136  -7.6009  -2.7461  -2.6018  -2.5489  -2.4439
    -2.3169  -2.3048  -2.2774  -2.1308  -2.0781  -1.9577  -1.8844  -1.8371
    -1.7573  -1.5805  -1.5156  -1.4437  -1.3814  -1.3792  -1.3335  -1.3235
    -1.2651  -1.2357  -1.1639  -1.1098  -1.0716  -1.0600  -1.0480  -0.9850
    -0.9145  -0.8982  -0.8234  -0.8034  -0.7664  -0.6768  -0.6700  -0.5816
    -0.5678  -0.5191  -0.4152  -0.3834  -0.3387  -0.2632  -0.1048  -0.0953
    -0.0313   0.1110   0.3325   0.3871   0.6271   0.8132   1.3073   1.3211
     1.3250   1.4818   1.9064   2.1319   2.5978   2.6519   2.6869   2.7412
     3.0006   3.0802   3.0975   3.1110   3.1658   3.2819   3.3629   3.4665
     3.5640   3.6115   3.7453   3.8693   4.0026   4.1048   4.3282   4.4626
     4.5238   4.5846   4.6354   4.7356   4.8911   4.9663   4.9818   5.0633
     5.1708   5.2481   5.3183   5.3554   5.5227   5.6013   5.6818   5.7457
     5.7602   5.8395   6.0230   6.1328   6.2657   6.3111   6.3815   6.4515
     6.4727

     the Fermi energy is     4.9353 ev

!    total energy              =   -2766.74821321 Ry
     Harris-Foulkes estimate   =   -2766.74821014 Ry
     estimated scf accuracy    <       0.00000026 Ry

     The total energy is the sum of the following terms:

     one-electron contribution =  -44418.93234061 Ry
     hartree contribution      =   22256.89398930 Ry
     xc contribution           =    -478.38799576 Ry
     ewald contribution        =   19873.71995891 Ry
     electric field correction =       0.00189022 Ry
     smearing contrib. (-TS)   =      -0.04371527 Ry

     convergence has been achieved in  23 iterations

     negative rho (up, down):  7.055E-03 0.000E+00

     Forces acting on atoms (cartesian axes, Ry/au):

     atom    1 type  1   force =    -0.00047032    0.00213314    0.17555080
     atom    2 type  1   force =     0.00168956   -0.00149183    0.17541604
     atom    3 type  1   force =    -0.00032053   -0.00025238    0.17376291
     atom    4 type  1   force =    -0.00123616   -0.00066227    0.17641629
     atom    5 type  2   force =     0.00255441    0.00128401   -0.17745711
     atom    6 type  2   force =    -0.00288079    0.00585605   -0.18732616
     atom    7 type  2   force =    -0.00407804   -0.00210952   -0.19151389
     atom    8 type  2   force =     0.00412860   -0.00492481   -0.18689425
     atom    9 type  1   force =     0.00144850   -0.00585591    0.00754719
     atom   10 type  1   force =     0.00408629    0.00229932    0.00373160
     atom   11 type  1   force =    -0.00474176    0.00403639    0.00784169
     atom   12 type  1   force =    -0.00224485   -0.00092557    0.01337804
     atom   13 type  2   force =    -0.01605749    0.01917868   -0.00390127
     atom   14 type  2   force =     0.01727548    0.00884963    0.00018818
     atom   15 type  2   force =    -0.01234266   -0.00616062    0.01720567
     atom   16 type  2   force =     0.01000816   -0.02270366   -0.00327497
     atom   17 type  1   force =     0.00013577    0.00003314    0.00050953
     atom   18 type  1   force =     0.00004932   -0.00041604   -0.00002632
     atom   19 type  1   force =     0.00030582   -0.00015963   -0.00007674
     atom   20 type  1   force =     0.00004410    0.00019190    0.00024639
     atom   21 type  2   force =     0.00042528    0.00023816    0.00019691
     atom   22 type  2   force =    -0.00089776   -0.00033886   -0.00044519
     atom   23 type  2   force =    -0.00007133    0.00008962   -0.00009376
     atom   24 type  2   force =     0.00058932   -0.00005961   -0.00030937
     atom   25 type  1   force =     0.00032348    0.00050944   -0.00047954
     atom   26 type  1   force =    -0.00010804    0.00028184    0.00020662
     atom   27 type  1   force =    -0.00008693   -0.00051455   -0.00004853
     atom   28 type  1   force =     0.00033158    0.00019217   -0.00013253
     atom   29 type  2   force =     0.00005695   -0.00093521   -0.00047892
     atom   30 type  2   force =    -0.00075042    0.00052274   -0.00007323
     atom   31 type  2   force =     0.00050484   -0.00028034   -0.00035157
     atom   32 type  2   force =    -0.00005769    0.00080706   -0.00037317
     atom   33 type  1   force =     0.00066487    0.00043808    0.00007588
     atom   34 type  1   force =    -0.00058215   -0.00006842   -0.00041665
     atom   35 type  1   force =     0.00003680   -0.00032680    0.00047344
     atom   36 type  2   force =     0.00021382   -0.00028895   -0.00077955
     atom   37 type  2   force =     0.00057105    0.00057866    0.00092246
     atom   38 type  2   force =     0.00057683   -0.00019369    0.00000969
     atom   39 type  2   force =     0.00009843   -0.00047002    0.00024120
     atom   40 type  1   force =     0.00090853    0.00047703    0.00004688
     atom   41 type  3   force =    -0.00007264   -0.00004589    0.00009512
     atom   42 type  3   force =    -0.00002825    0.00118752    0.00039019
