  python dir          : /home/mstatt/espresso/lib/python2.7/site-packages/espresso
  espresso dir        : /home/mstatt/espresso/q-e/bin
  pseudo dir          : /home/vossj/suncat/psp/gbrv1.5pbe
  ase-espresso py git : 5c31baa-git



     Program PWSCF v.6.1 starts on 12Nov2017 at 23:33: 4 

     This program is part of the open-source Quantum ESPRESSO suite
     for quantum simulation of materials; please cite
         "P. Giannozzi et al., J. Phys.:Condens. Matter 21 395502 (2009);
          URL http://www.quantum-espresso.org", 
     in publications or presentations arising from this work. More details at
     http://www.quantum-espresso.org/quote

     Parallel version (MPI), running on    16 processors
     R & G space division:  proc/nbgrp/npool/nimage =      16
     Reading input from pw.inp
     Message from routine read_cards :
     DEPRECATED: no units specified in CELL_PARAMETERS card

     Current dimensions of program PWSCF are:
     Max number of different atomic species (ntypx) = 10
     Max number of k-points (npk) =  40000
     Max angular momentum in pseudopotentials (lmaxx) =  3
     Presently no symmetry can be used with electric field


     IMPORTANT: XC functional enforced from input :
     Exchange-correlation      = RPBE ( 1  4 30  4 0 0)
     Any further DFT definition will be discarded
     Please, verify this is what you really want


     Subspace diagonalization in iterative solution of the eigenvalue problem:
     one sub-group per band group will be used
     scalapack distributed-memory algorithm (size of sub-group:  2*  2 procs)


     Parallelization info
     --------------------
     sticks:   dense  smooth     PW     G-vecs:    dense   smooth      PW
     Min         266     107     29                69144    17493    2591
     Max         267     109     30                69175    17498    2612
     Sum        4267    1723    475              1106651   279935   41669



     bravais-lattice index     =            0
     lattice parameter (alat)  =       1.8897  a.u.
     unit-cell volume          =    9299.8385 (a.u.)^3
     number of atoms/cell      =           40
     number of atomic types    =            2
     number of electrons       =       300.00
     number of Kohn-Sham states=          170
     kinetic-energy cutoff     =      36.7493  Ry
     charge density cutoff     =     367.4932  Ry
     convergence threshold     =      7.3E-07
     mixing beta               =       0.1000
     number of iterations used =           10  plain     mixing
     Exchange-correlation      = RPBE ( 1  4 30  4 0 0)

     celldm(1)=   1.889726  celldm(2)=   0.000000  celldm(3)=   0.000000
     celldm(4)=   0.000000  celldm(5)=   0.000000  celldm(6)=   0.000000

     crystal axes: (cart. coord. in units of alat)
               a(1) = (   6.874000   0.000000  -0.000000 )  
               a(2) = (   3.437000   5.953000  -0.000000 )  
               a(3) = (   0.000000  -0.000000  33.677000 )  

     reciprocal axes: (cart. coord. in units 2 pi/alat)
               b(1) = (  0.145476 -0.083991 -0.000000 )  
               b(2) = (  0.000000  0.167983  0.000000 )  
               b(3) = (  0.000000  0.000000  0.029694 )  


     PseudoPot. # 1 for Mg read from file:
     /home/vossj/suncat/psp/gbrv1.5pbe/Mg.UPF
     MD5 check sum: 8ffbd8f729fef71095aac5bd8316fb1f
     Pseudo is Ultrasoft, Zval = 10.0
     Generated by new atomic code, or converted to UPF format
     Using radial grid of  821 points,  7 beta functions with: 
                l(1) =   0
                l(2) =   0
                l(3) =   0
                l(4) =   1
                l(5) =   1
                l(6) =   2
                l(7) =   2
     Q(r) pseudized with  8 coefficients,  rinner =    1.200   1.200   1.200
                                                       1.200   1.200

     PseudoPot. # 2 for N  read from file:
     /home/vossj/suncat/psp/gbrv1.5pbe/N.UPF
     MD5 check sum: 95339753478d7afb44899504a8723017
     Pseudo is Ultrasoft + core correction, Zval =  5.0
     Generated by new atomic code, or converted to UPF format
     Using radial grid of  729 points,  4 beta functions with: 
                l(1) =   0
                l(2) =   0
                l(3) =   1
                l(4) =   1
     Q(r) pseudized with  8 coefficients,  rinner =    0.900   0.900   0.900


     atomic species   valence    mass     pseudopotential
        Mg1           10.00    24.30500     Mg( 1.00)
        N1             5.00    14.00670     N ( 1.00)

     No symmetry found



   Cartesian axes

     site n.     atom                  positions (alat units)
         1           Mg1 tau(   1) = (   9.4520000   5.4570000  10.8750000  )
         2           Mg1 tau(   2) = (   7.7330000   2.4800000  10.8750000  )
         3           Mg1 tau(   3) = (   6.0150000   5.4570000  10.8750000  )
         4           Mg1 tau(   4) = (   4.2960000   2.4800000  10.8750000  )
         5           N1  tau(   5) = (   4.2960000   4.4650000  11.5770000  )
         6           N1  tau(   6) = (   7.7330000   4.4650000  11.5770000  )
         7           N1  tau(   7) = (   6.0150000   1.4880000  11.5770000  )
         8           N1  tau(   8) = (   2.5780000   1.4880000  11.5770000  )
         9           Mg1 tau(   9) = (   7.7330000   4.4650000  13.6810000  )
        10           Mg1 tau(  10) = (   6.0150000   1.4880000  13.6810000  )
        11           Mg1 tau(  11) = (   4.2960000   4.4650000  13.6810000  )
        12           Mg1 tau(  12) = (   2.5780000   1.4880000  13.6810000  )
        13           N1  tau(  13) = (   4.2960000   0.4960000  14.3830000  )
        14           N1  tau(  14) = (   6.0150000   3.4720000  14.3830000  )
        15           N1  tau(  15) = (   2.5780000   3.4720000  14.3830000  )
        16           N1  tau(  16) = (   0.8590000   0.4960000  14.3830000  )
        17           Mg1 tau(  17) = (   4.3400000   0.5160000  16.4110000  )
        18           Mg1 tau(  18) = (   6.0170000   3.4320000  16.4040000  )
        19           Mg1 tau(  19) = (   0.7600000   0.5410000  16.4230000  )
        20           Mg1 tau(  20) = (   2.5460000   3.4760000  16.3860000  )
        21           N1  tau(  21) = (   7.7250000   2.4850000  17.5940000  )
        22           N1  tau(  22) = (   6.0150000   5.4450000  17.6810000  )
        23           N1  tau(  23) = (   9.4410000   5.4660000  17.6370000  )
        24           N1  tau(  24) = (   4.2510000   2.4940000  17.4980000  )
        25           Mg1 tau(  25) = (   2.5790000   1.4960000  18.3360000  )
        26           Mg1 tau(  26) = (   7.7410000   4.4470000  18.4520000  )
        27           Mg1 tau(  27) = (   5.9280000   1.5650000  18.6070000  )
        28           Mg1 tau(  28) = (   4.2870000   4.4330000  18.3470000  )
        29           N1  tau(  29) = (   3.8210000   3.1820000  23.6170000  )
        30           N1  tau(  30) = (   5.6530000   1.9360000  20.6000000  )
        31           N1  tau(  31) = (   5.6780000   5.6110000  22.0370000  )
        32           N1  tau(  32) = (   8.0620000   4.5920000  20.9860000  )
        33           Mg1 tau(  33) = (   4.7860000   1.3950000  22.4760000  )
        34           Mg1 tau(  34) = (   6.3620000   3.4760000  21.7890000  )
        35           Mg1 tau(  35) = (   1.4700000   1.6620000  24.0980000  )
        36           Mg1 tau(  36) = (   7.1470000   0.7380000  21.5180000  )
        37           N1  tau(  37) = (   8.7430000   5.3230000  21.5980000  )
        38           N1  tau(  38) = (   2.8070000   0.4960000  22.7640000  )
        39           N1  tau(  39) = (   3.1260000   3.1690000  24.5330000  )
        40           N1  tau(  40) = (   6.6860000   1.9320000  23.1700000  )

     number of k points=    10  Fermi-Dirac smearing, width (Ry)=  0.0073
                       cart. coord. in units 2pi/alat
        k(    1) = (   0.0000000   0.0000000   0.0000000), wk =   0.1250000
        k(    2) = (   0.0000000   0.0419956   0.0000000), wk =   0.2500000
        k(    3) = (   0.0000000  -0.0839913   0.0000000), wk =   0.1250000
        k(    4) = (   0.0363689  -0.0209978   0.0000000), wk =   0.2500000
        k(    5) = (   0.0363689   0.0209978   0.0000000), wk =   0.2500000
        k(    6) = (   0.0363689  -0.1049891   0.0000000), wk =   0.2500000
        k(    7) = (   0.0363689  -0.0629934   0.0000000), wk =   0.2500000
        k(    8) = (  -0.0727379   0.0419956   0.0000000), wk =   0.1250000
        k(    9) = (  -0.0727379   0.0839913   0.0000000), wk =   0.2500000
        k(   10) = (  -0.0727379  -0.0419956   0.0000000), wk =   0.1250000

     Dense  grid:  1106651 G-vectors     FFT dimensions: (  80,  80, 400)

     Smooth grid:   279935 G-vectors     FFT dimensions: (  54,  54, 250)

     Estimated max dynamical RAM per process >     174.26MB

     Estimated total allocated dynamical RAM >    2788.10MB

     Initial potential from superposition of free atoms
     Check: negative starting charge=   -0.001874

     starting charge  293.99524, renormalised to  300.00000

     negative rho (up, down):  1.912E-03 0.000E+00

     Adding external electric field

     Computed dipole along edir(3) : 
        Dipole               -5.0334 Ry au,        -12.7936 Debye
        Dipole field         -0.0068 Ry au, 

        Potential amp.        0.8440 Ry
        Total length         62.0493 bohr

     Starting wfc are  180 randomized atomic wfcs

     total cpu time spent up to now is       18.5 secs

     per-process dynamical memory:   152.2 Mb

     Self-consistent Calculation

     iteration #  1     ecut=    36.75 Ry     beta=0.10
     Davidson diagonalization with overlap
     ethr =  1.00E-02,  avg # of iterations = 10.4

     negative rho (up, down):  1.196E-03 0.000E+00

     Adding external electric field

     Computed dipole along edir(3) : 
        Dipole               25.2990 Ry au,         64.3037 Debye
        Dipole field          0.0342 Ry au, 

        Potential amp.       -4.2423 Ry
        Total length         62.0493 bohr


     total cpu time spent up to now is       99.0 secs

     total energy              =   -2859.16449514 Ry
     Harris-Foulkes estimate   =   -2920.34442049 Ry
     estimated scf accuracy    <     329.77789763 Ry

     iteration #  2     ecut=    36.75 Ry     beta=0.10
     Davidson diagonalization with overlap
     ethr =  1.00E-02,  avg # of iterations = 10.6

     negative rho (up, down):  2.255E-04 0.000E+00

     Adding external electric field

     Computed dipole along edir(3) : 
        Dipole               -4.4507 Ry au,        -11.3127 Debye
        Dipole field         -0.0060 Ry au, 

        Potential amp.        0.7463 Ry
        Total length         62.0493 bohr


     total cpu time spent up to now is      226.2 secs

     total energy              =   -2699.27170891 Ry
     Harris-Foulkes estimate   =   -3098.66754186 Ry
     estimated scf accuracy    <   19018.19883379 Ry

     iteration #  3     ecut=    36.75 Ry     beta=0.10
     Davidson diagonalization with overlap
     ethr =  1.00E-02,  avg # of iterations = 11.9

     negative rho (up, down):  2.282E-04 0.000E+00

     Adding external electric field

     Computed dipole along edir(3) : 
        Dipole               -5.3307 Ry au,        -13.5494 Debye
        Dipole field         -0.0072 Ry au, 

        Potential amp.        0.8939 Ry
        Total length         62.0493 bohr


     total cpu time spent up to now is      346.4 secs

     total energy              =   -2907.61994355 Ry
     Harris-Foulkes estimate   =   -2917.63681406 Ry
     estimated scf accuracy    <     233.64413299 Ry

     iteration #  4     ecut=    36.75 Ry     beta=0.10
     Davidson diagonalization with overlap
     ethr =  1.00E-02,  avg # of iterations =  4.6

     negative rho (up, down):  2.370E-04 0.000E+00

     Adding external electric field

     Computed dipole along edir(3) : 
        Dipole               -5.8778 Ry au,        -14.9398 Debye
        Dipole field         -0.0079 Ry au, 

        Potential amp.        0.9856 Ry
        Total length         62.0493 bohr


     total cpu time spent up to now is      389.5 secs

     total energy              =   -2913.58704834 Ry
     Harris-Foulkes estimate   =   -2914.93069103 Ry
     estimated scf accuracy    <      19.11871215 Ry

     iteration #  5     ecut=    36.75 Ry     beta=0.10
     Davidson diagonalization with overlap
     ethr =  6.37E-03,  avg # of iterations =  4.8

     negative rho (up, down):  2.596E-04 0.000E+00

     Adding external electric field

     Computed dipole along edir(3) : 
        Dipole               -5.9326 Ry au,        -15.0792 Debye
        Dipole field         -0.0080 Ry au, 

        Potential amp.        0.9948 Ry
        Total length         62.0493 bohr


     total cpu time spent up to now is      434.4 secs

     total energy              =   -2912.83039868 Ry
     Harris-Foulkes estimate   =   -2914.24857331 Ry
     estimated scf accuracy    <      21.87585476 Ry

     iteration #  6     ecut=    36.75 Ry     beta=0.10
     Davidson diagonalization with overlap
     ethr =  6.37E-03,  avg # of iterations =  1.8

     negative rho (up, down):  2.836E-04 0.000E+00

     Adding external electric field

     Computed dipole along edir(3) : 
        Dipole               -5.5163 Ry au,        -14.0210 Debye
        Dipole field         -0.0075 Ry au, 

        Potential amp.        0.9250 Ry
        Total length         62.0493 bohr


     total cpu time spent up to now is      469.9 secs

     total energy              =   -2912.72076149 Ry
     Harris-Foulkes estimate   =   -2913.09619629 Ry
     estimated scf accuracy    <       5.82318252 Ry

     iteration #  7     ecut=    36.75 Ry     beta=0.10
     Davidson diagonalization with overlap
     ethr =  1.94E-03,  avg # of iterations =  2.1

     negative rho (up, down):  3.587E-04 0.000E+00

     Adding external electric field

     Computed dipole along edir(3) : 
        Dipole               -5.6883 Ry au,        -14.4583 Debye
        Dipole field         -0.0077 Ry au, 

        Potential amp.        0.9539 Ry
        Total length         62.0493 bohr


     total cpu time spent up to now is      506.0 secs

     total energy              =   -2911.23618588 Ry
     Harris-Foulkes estimate   =   -2913.11648576 Ry
     estimated scf accuracy    <      16.37847223 Ry

     iteration #  8     ecut=    36.75 Ry     beta=0.10
     Davidson diagonalization with overlap
     ethr =  1.94E-03,  avg # of iterations =  4.2

     negative rho (up, down):  3.773E-04 0.000E+00

     Adding external electric field

     Computed dipole along edir(3) : 
        Dipole               -5.7250 Ry au,        -14.5516 Debye
        Dipole field         -0.0077 Ry au, 

        Potential amp.        0.9600 Ry
        Total length         62.0493 bohr


     total cpu time spent up to now is      550.4 secs

     total energy              =   -2914.14442838 Ry
     Harris-Foulkes estimate   =   -2915.13579587 Ry
     estimated scf accuracy    <     236.49322686 Ry

     iteration #  9     ecut=    36.75 Ry     beta=0.10
     Davidson diagonalization with overlap
     ethr =  1.94E-03,  avg # of iterations =  1.2

     negative rho (up, down):  4.065E-04 0.000E+00

     Adding external electric field

     Computed dipole along edir(3) : 
        Dipole               -5.7321 Ry au,        -14.5696 Debye
        Dipole field         -0.0077 Ry au, 

        Potential amp.        0.9612 Ry
        Total length         62.0493 bohr


     total cpu time spent up to now is      585.0 secs

     total energy              =   -2914.33514548 Ry
     Harris-Foulkes estimate   =   -2914.18015987 Ry
     estimated scf accuracy    <     209.03182928 Ry

     iteration # 10     ecut=    36.75 Ry     beta=0.10
     Davidson diagonalization with overlap
     ethr =  1.94E-03,  avg # of iterations =  1.0

     negative rho (up, down):  4.392E-04 0.000E+00

     Adding external electric field

     Computed dipole along edir(3) : 
        Dipole               -5.7998 Ry au,        -14.7416 Debye
        Dipole field         -0.0078 Ry au, 

        Potential amp.        0.9726 Ry
        Total length         62.0493 bohr


     total cpu time spent up to now is      619.1 secs

     total energy              =   -2915.16573362 Ry
     Harris-Foulkes estimate   =   -2914.33583384 Ry
     estimated scf accuracy    <     213.67422163 Ry

     iteration # 11     ecut=    36.75 Ry     beta=0.10
     Davidson diagonalization with overlap
     ethr =  1.94E-03,  avg # of iterations =  1.0

     negative rho (up, down):  8.381E-04 0.000E+00

     Adding external electric field

     Computed dipole along edir(3) : 
        Dipole               -5.4597 Ry au,        -13.8772 Debye
        Dipole field         -0.0074 Ry au, 

        Potential amp.        0.9155 Ry
        Total length         62.0493 bohr


     total cpu time spent up to now is      653.2 secs

     total energy              =   -2908.64059663 Ry
     Harris-Foulkes estimate   =   -2915.18772169 Ry
     estimated scf accuracy    <     225.02778974 Ry

     iteration # 12     ecut=    36.75 Ry     beta=0.10
     Davidson diagonalization with overlap
     ethr =  1.94E-03,  avg # of iterations =  5.4

     negative rho (up, down):  1.806E-03 0.000E+00

     Adding external electric field

     Computed dipole along edir(3) : 
        Dipole               -5.4102 Ry au,        -13.7513 Debye
        Dipole field         -0.0073 Ry au, 

        Potential amp.        0.9072 Ry
        Total length         62.0493 bohr


     total cpu time spent up to now is      700.5 secs

     total energy              =   -2912.60444045 Ry
     Harris-Foulkes estimate   =   -2912.50659386 Ry
     estimated scf accuracy    <      12.60224042 Ry

     iteration # 13     ecut=    36.75 Ry     beta=0.10
     Davidson diagonalization with overlap
     ethr =  1.94E-03,  avg # of iterations =  1.1

     negative rho (up, down):  4.062E-02 0.000E+00

     Adding external electric field

     Computed dipole along edir(3) : 
        Dipole               -4.6762 Ry au,        -11.8856 Debye
        Dipole field         -0.0063 Ry au, 

        Potential amp.        0.7841 Ry
        Total length         62.0493 bohr


     total cpu time spent up to now is      734.8 secs

     total energy              =   -2913.78428921 Ry
     Harris-Foulkes estimate   =   -2912.66313914 Ry
     estimated scf accuracy    <      10.28086007 Ry

     iteration # 14     ecut=    36.75 Ry     beta=0.10
     Davidson diagonalization with overlap
     ethr =  1.94E-03,  avg # of iterations =  6.8

     negative rho (up, down):  3.370E-02 0.000E+00

     Adding external electric field

     Computed dipole along edir(3) : 
        Dipole               -4.9044 Ry au,        -12.4656 Debye
        Dipole field         -0.0066 Ry au, 

        Potential amp.        0.8224 Ry
        Total length         62.0493 bohr


     total cpu time spent up to now is      787.2 secs

     total energy              =   -2915.30290545 Ry
     Harris-Foulkes estimate   =   -2914.72437221 Ry
     estimated scf accuracy    <     142.44645238 Ry

     iteration # 15     ecut=    36.75 Ry     beta=0.10
     Davidson diagonalization with overlap
     ethr =  1.94E-03,  avg # of iterations =  1.9

     negative rho (up, down):  2.618E-02 0.000E+00

     Adding external electric field

     Computed dipole along edir(3) : 
        Dipole               -5.0284 Ry au,        -12.7809 Debye
        Dipole field         -0.0068 Ry au, 

        Potential amp.        0.8432 Ry
        Total length         62.0493 bohr


     total cpu time spent up to now is      823.0 secs

     total energy              =   -2913.80072347 Ry
     Harris-Foulkes estimate   =   -2915.44730940 Ry
     estimated scf accuracy    <     219.17618158 Ry

     iteration # 16     ecut=    36.75 Ry     beta=0.10
     Davidson diagonalization with overlap
     ethr =  1.94E-03,  avg # of iterations =  1.1

     negative rho (up, down):  3.121E-02 0.000E+00

     Adding external electric field

     Computed dipole along edir(3) : 
        Dipole               -4.9535 Ry au,        -12.5905 Debye
        Dipole field         -0.0067 Ry au, 

        Potential amp.        0.8306 Ry
        Total length         62.0493 bohr


     total cpu time spent up to now is      857.1 secs

     total energy              =   -2913.97026622 Ry
     Harris-Foulkes estimate   =   -2913.99886018 Ry
     estimated scf accuracy    <     113.59931548 Ry

     iteration # 17     ecut=    36.75 Ry     beta=0.10
     Davidson diagonalization with overlap
     ethr =  1.94E-03,  avg # of iterations =  1.0

     negative rho (up, down):  1.763E-02 0.000E+00

     Adding external electric field

     Computed dipole along edir(3) : 
        Dipole               -4.8280 Ry au,        -12.2715 Debye
        Dipole field         -0.0065 Ry au, 

        Potential amp.        0.8096 Ry
        Total length         62.0493 bohr


     total cpu time spent up to now is      891.3 secs

     total energy              =   -2913.39846718 Ry
     Harris-Foulkes estimate   =   -2913.97926178 Ry
     estimated scf accuracy    <     110.54148760 Ry

     iteration # 18     ecut=    36.75 Ry     beta=0.10
     Davidson diagonalization with overlap
     ethr =  1.94E-03,  avg # of iterations =  1.0

     negative rho (up, down):  2.986E-02 0.000E+00

     Adding external electric field

     Computed dipole along edir(3) : 
        Dipole               -4.5772 Ry au,        -11.6342 Debye
        Dipole field         -0.0062 Ry au, 

        Potential amp.        0.7675 Ry
        Total length         62.0493 bohr


     total cpu time spent up to now is      925.3 secs

     total energy              =   -2913.80903334 Ry
     Harris-Foulkes estimate   =   -2913.54039488 Ry
     estimated scf accuracy    <      65.03962563 Ry

     iteration # 19     ecut=    36.75 Ry     beta=0.10
     Davidson diagonalization with overlap
     ethr =  1.94E-03,  avg # of iterations =  1.0

     negative rho (up, down):  3.941E-02 0.000E+00

     Adding external electric field

     Computed dipole along edir(3) : 
        Dipole               -4.2166 Ry au,        -10.7177 Debye
        Dipole field         -0.0057 Ry au, 

        Potential amp.        0.7071 Ry
        Total length         62.0493 bohr


     total cpu time spent up to now is      959.5 secs

     total energy              =   -2913.86962720 Ry
     Harris-Foulkes estimate   =   -2913.85384094 Ry
     estimated scf accuracy    <      56.36996600 Ry

     iteration # 20     ecut=    36.75 Ry     beta=0.10
     Davidson diagonalization with overlap
     ethr =  1.94E-03,  avg # of iterations =  1.0

     negative rho (up, down):  1.676E-02 0.000E+00

     Adding external electric field

     Computed dipole along edir(3) : 
        Dipole               -3.1453 Ry au,         -7.9945 Debye
        Dipole field         -0.0043 Ry au, 

        Potential amp.        0.5274 Ry
        Total length         62.0493 bohr


     total cpu time spent up to now is      993.6 secs

     total energy              =   -2911.53362484 Ry
     Harris-Foulkes estimate   =   -2913.91650989 Ry
     estimated scf accuracy    <      38.30344180 Ry

     iteration # 21     ecut=    36.75 Ry     beta=0.10
     Davidson diagonalization with overlap
     ethr =  1.94E-03,  avg # of iterations =  6.5

     negative rho (up, down):  2.728E-02 0.000E+00

     Adding external electric field

     Computed dipole along edir(3) : 
        Dipole               -2.0031 Ry au,         -5.0913 Debye
        Dipole field         -0.0027 Ry au, 

        Potential amp.        0.3359 Ry
        Total length         62.0493 bohr


     total cpu time spent up to now is     1043.6 secs

     total energy              =   -2912.42852333 Ry
     Harris-Foulkes estimate   =   -2912.26728195 Ry
     estimated scf accuracy    <      11.90422961 Ry

     iteration # 22     ecut=    36.75 Ry     beta=0.10
     Davidson diagonalization with overlap
     ethr =  1.94E-03,  avg # of iterations =  1.1

     negative rho (up, down):  1.118E-04 0.000E+00

     Adding external electric field

     Computed dipole along edir(3) : 
        Dipole               -2.9838 Ry au,         -7.5839 Debye
        Dipole field         -0.0040 Ry au, 

        Potential amp.        0.5003 Ry
        Total length         62.0493 bohr


     total cpu time spent up to now is     1077.9 secs

     total energy              =   -2911.17819941 Ry
     Harris-Foulkes estimate   =   -2912.48109239 Ry
     estimated scf accuracy    <      12.81717838 Ry

     iteration # 23     ecut=    36.75 Ry     beta=0.10
     Davidson diagonalization with overlap
     ethr =  1.94E-03,  avg # of iterations =  5.8

     negative rho (up, down):  2.056E-02 0.000E+00

     Adding external electric field

     Computed dipole along edir(3) : 
        Dipole               -1.6620 Ry au,         -4.2244 Debye
        Dipole field         -0.0022 Ry au, 

        Potential amp.        0.2787 Ry
        Total length         62.0493 bohr


     total cpu time spent up to now is     1127.0 secs

     total energy              =   -2909.22220738 Ry
     Harris-Foulkes estimate   =   -2913.21312129 Ry
     estimated scf accuracy    <     107.90058262 Ry

     iteration # 24     ecut=    36.75 Ry     beta=0.10
     Davidson diagonalization with overlap
     ethr =  1.94E-03,  avg # of iterations =  4.1

     negative rho (up, down):  1.593E-02 0.000E+00

     Adding external electric field

     Computed dipole along edir(3) : 
        Dipole               -1.2193 Ry au,         -3.0992 Debye
        Dipole field         -0.0016 Ry au, 

        Potential amp.        0.2045 Ry
        Total length         62.0493 bohr


     total cpu time spent up to now is     1170.1 secs

     total energy              =   -2912.37597490 Ry
     Harris-Foulkes estimate   =   -2912.44049343 Ry
     estimated scf accuracy    <       9.45226269 Ry

     iteration # 25     ecut=    36.75 Ry     beta=0.10
     Davidson diagonalization with overlap
     ethr =  1.94E-03,  avg # of iterations =  1.0

     negative rho (up, down):  1.644E-02 0.000E+00

     Adding external electric field

     Computed dipole along edir(3) : 
        Dipole               -1.2433 Ry au,         -3.1602 Debye
        Dipole field         -0.0017 Ry au, 

        Potential amp.        0.2085 Ry
        Total length         62.0493 bohr


     total cpu time spent up to now is     1204.2 secs

     total energy              =   -2912.35995528 Ry
     Harris-Foulkes estimate   =   -2912.39085292 Ry
     estimated scf accuracy    <       7.14480194 Ry

     iteration # 26     ecut=    36.75 Ry     beta=0.10
     Davidson diagonalization with overlap
     ethr =  1.94E-03,  avg # of iterations =  1.0

     negative rho (up, down):  1.170E-02 0.000E+00

     Adding external electric field

     Computed dipole along edir(3) : 
        Dipole               -1.0936 Ry au,         -2.7796 Debye
        Dipole field         -0.0015 Ry au, 

        Potential amp.        0.1834 Ry
        Total length         62.0493 bohr


     total cpu time spent up to now is     1238.3 secs

     total energy              =   -2912.49239866 Ry
     Harris-Foulkes estimate   =   -2912.36159143 Ry
     estimated scf accuracy    <       6.84330304 Ry

     iteration # 27     ecut=    36.75 Ry     beta=0.10
     Davidson diagonalization with overlap
     ethr =  1.94E-03,  avg # of iterations =  1.0

     negative rho (up, down):  5.693E-03 0.000E+00

     Adding external electric field

     Computed dipole along edir(3) : 
        Dipole               -0.9909 Ry au,         -2.5186 Debye
        Dipole field         -0.0013 Ry au, 

        Potential amp.        0.1662 Ry
        Total length         62.0493 bohr


     total cpu time spent up to now is     1272.4 secs

     total energy              =   -2912.51223188 Ry
     Harris-Foulkes estimate   =   -2912.50042316 Ry
     estimated scf accuracy    <       9.16836227 Ry

     iteration # 28     ecut=    36.75 Ry     beta=0.10
     Davidson diagonalization with overlap
     ethr =  1.94E-03,  avg # of iterations =  1.0

     negative rho (up, down):  4.494E-03 0.000E+00

     Adding external electric field

     Computed dipole along edir(3) : 
        Dipole               -1.0481 Ry au,         -2.6640 Debye
        Dipole field         -0.0014 Ry au, 

        Potential amp.        0.1758 Ry
        Total length         62.0493 bohr


     total cpu time spent up to now is     1306.5 secs

     total energy              =   -2912.45763241 Ry
     Harris-Foulkes estimate   =   -2912.52796094 Ry
     estimated scf accuracy    <       7.27625174 Ry

     iteration # 29     ecut=    36.75 Ry     beta=0.10
     Davidson diagonalization with overlap
     ethr =  1.94E-03,  avg # of iterations =  1.4

     negative rho (up, down):  3.772E-03 0.000E+00

     Adding external electric field

     Computed dipole along edir(3) : 
        Dipole               -1.0874 Ry au,         -2.7640 Debye
        Dipole field         -0.0015 Ry au, 

        Potential amp.        0.1823 Ry
        Total length         62.0493 bohr


     total cpu time spent up to now is     1341.4 secs

     total energy              =   -2912.46099192 Ry
     Harris-Foulkes estimate   =   -2912.47034509 Ry
     estimated scf accuracy    <       7.55520756 Ry

     iteration # 30     ecut=    36.75 Ry     beta=0.10
     Davidson diagonalization with overlap
     ethr =  1.94E-03,  avg # of iterations =  1.1

     negative rho (up, down):  8.896E-03 0.000E+00

     Adding external electric field

     Computed dipole along edir(3) : 
        Dipole               -1.2207 Ry au,         -3.1028 Debye
        Dipole field         -0.0016 Ry au, 

        Potential amp.        0.2047 Ry
        Total length         62.0493 bohr


     total cpu time spent up to now is     1375.6 secs

     total energy              =   -2912.44520673 Ry
     Harris-Foulkes estimate   =   -2912.46085462 Ry
     estimated scf accuracy    <       7.53354173 Ry

     iteration # 31     ecut=    36.75 Ry     beta=0.10
     Davidson diagonalization with overlap
     ethr =  1.94E-03,  avg # of iterations =  1.0

     negative rho (up, down):  1.455E-03 0.000E+00

     Adding external electric field

     Computed dipole along edir(3) : 
        Dipole               -1.2959 Ry au,         -3.2940 Debye
        Dipole field         -0.0018 Ry au, 

        Potential amp.        0.2173 Ry
        Total length         62.0493 bohr


     total cpu time spent up to now is     1409.7 secs

     total energy              =   -2912.54430563 Ry
     Harris-Foulkes estimate   =   -2912.44539509 Ry
     estimated scf accuracy    <       7.42518114 Ry

     iteration # 32     ecut=    36.75 Ry     beta=0.10
     Davidson diagonalization with overlap
     ethr =  1.94E-03,  avg # of iterations =  1.0

     negative rho (up, down):  1.700E-02 0.000E+00

     Adding external electric field

     Computed dipole along edir(3) : 
        Dipole               -1.2545 Ry au,         -3.1887 Debye
        Dipole field         -0.0017 Ry au, 

        Potential amp.        0.2104 Ry
        Total length         62.0493 bohr


     total cpu time spent up to now is     1443.7 secs

     total energy              =   -2912.32366848 Ry
     Harris-Foulkes estimate   =   -2912.54920863 Ry
     estimated scf accuracy    <       8.77652265 Ry

     iteration # 33     ecut=    36.75 Ry     beta=0.10
     Davidson diagonalization with overlap
     ethr =  1.94E-03,  avg # of iterations =  1.0

     negative rho (up, down):  5.785E-02 0.000E+00

     Adding external electric field

     Computed dipole along edir(3) : 
        Dipole               -1.4249 Ry au,         -3.6218 Debye
        Dipole field         -0.0019 Ry au, 

        Potential amp.        0.2389 Ry
        Total length         62.0493 bohr


     total cpu time spent up to now is     1477.8 secs

     total energy              =   -2912.01329502 Ry
     Harris-Foulkes estimate   =   -2912.33391998 Ry
     estimated scf accuracy    <       7.29021800 Ry

     iteration # 34     ecut=    36.75 Ry     beta=0.10
     Davidson diagonalization with overlap
     ethr =  1.94E-03,  avg # of iterations =  1.8

     negative rho (up, down):  1.718E-01 0.000E+00

     Adding external electric field

     Computed dipole along edir(3) : 
        Dipole               -1.3056 Ry au,         -3.3184 Debye
        Dipole field         -0.0018 Ry au, 

        Potential amp.        0.2189 Ry
        Total length         62.0493 bohr


     total cpu time spent up to now is     1513.4 secs

     total energy              =   -2911.28542515 Ry
     Harris-Foulkes estimate   =   -2912.04475987 Ry
     estimated scf accuracy    <       4.31416614 Ry

     iteration # 35     ecut=    36.75 Ry     beta=0.10
     Davidson diagonalization with overlap
     ethr =  1.44E-03,  avg # of iterations =  6.9

     negative rho (up, down):  9.158E-02 0.000E+00

     Adding external electric field

     Computed dipole along edir(3) : 
        Dipole               -1.0884 Ry au,         -2.7665 Debye
        Dipole field         -0.0015 Ry au, 

        Potential amp.        0.1825 Ry
        Total length         62.0493 bohr


     total cpu time spent up to now is     1565.6 secs

     total energy              =   -2912.35380580 Ry
     Harris-Foulkes estimate   =   -2914.16647700 Ry
     estimated scf accuracy    <     181.21097275 Ry

     iteration # 36     ecut=    36.75 Ry     beta=0.10
     Davidson diagonalization with overlap
     ethr =  1.44E-03,  avg # of iterations =  2.3

     negative rho (up, down):  6.554E-02 0.000E+00

     Adding external electric field

     Computed dipole along edir(3) : 
        Dipole               -1.3300 Ry au,         -3.3806 Debye
        Dipole field         -0.0018 Ry au, 

        Potential amp.        0.2230 Ry
        Total length         62.0493 bohr


     total cpu time spent up to now is     1602.3 secs

     total energy              =   -2911.37440006 Ry
     Harris-Foulkes estimate   =   -2912.67081625 Ry
     estimated scf accuracy    <      99.48194542 Ry

     iteration # 37     ecut=    36.75 Ry     beta=0.10
     Davidson diagonalization with overlap
     ethr =  1.44E-03,  avg # of iterations =  2.5

     negative rho (up, down):  9.144E-02 0.000E+00

     Adding external electric field

     Computed dipole along edir(3) : 
        Dipole               -1.3042 Ry au,         -3.3148 Debye
        Dipole field         -0.0018 Ry au, 

        Potential amp.        0.2187 Ry
        Total length         62.0493 bohr


     total cpu time spent up to now is     1639.4 secs

     total energy              =   -2911.88600096 Ry
     Harris-Foulkes estimate   =   -2911.91269567 Ry
     estimated scf accuracy    <       2.02617799 Ry

     iteration # 38     ecut=    36.75 Ry     beta=0.10
     Davidson diagonalization with overlap
     ethr =  6.75E-04,  avg # of iterations =  1.8

     negative rho (up, down):  1.084E-01 0.000E+00

     Adding external electric field

     Computed dipole along edir(3) : 
        Dipole               -1.2055 Ry au,         -3.0641 Debye
        Dipole field         -0.0016 Ry au, 

        Potential amp.        0.2022 Ry
        Total length         62.0493 bohr


     total cpu time spent up to now is     1675.1 secs

     total energy              =   -2911.88801748 Ry
     Harris-Foulkes estimate   =   -2911.89613533 Ry
     estimated scf accuracy    <       0.60787490 Ry

     iteration # 39     ecut=    36.75 Ry     beta=0.10
     Davidson diagonalization with overlap
     ethr =  2.03E-04,  avg # of iterations =  6.0

     negative rho (up, down):  1.190E-01 0.000E+00

     Adding external electric field

     Computed dipole along edir(3) : 
        Dipole               -1.0974 Ry au,         -2.7894 Debye
        Dipole field         -0.0015 Ry au, 

        Potential amp.        0.1840 Ry
        Total length         62.0493 bohr


     total cpu time spent up to now is     1719.4 secs

     total energy              =   -2911.88316163 Ry
     Harris-Foulkes estimate   =   -2911.89304109 Ry
     estimated scf accuracy    <       0.28220959 Ry

     iteration # 40     ecut=    36.75 Ry     beta=0.10
     Davidson diagonalization with overlap
     ethr =  9.41E-05,  avg # of iterations =  5.5

     negative rho (up, down):  8.318E-02 0.000E+00

     Adding external electric field

     Computed dipole along edir(3) : 
        Dipole               -0.9723 Ry au,         -2.4713 Debye
        Dipole field         -0.0013 Ry au, 

        Potential amp.        0.1630 Ry
        Total length         62.0493 bohr


     total cpu time spent up to now is     1762.7 secs

     total energy              =   -2911.88301012 Ry
     Harris-Foulkes estimate   =   -2911.90545301 Ry
     estimated scf accuracy    <       1.70692675 Ry

     iteration # 41     ecut=    36.75 Ry     beta=0.10
     Davidson diagonalization with overlap
     ethr =  9.41E-05,  avg # of iterations =  4.4

     negative rho (up, down):  9.749E-02 0.000E+00

     Adding external electric field

     Computed dipole along edir(3) : 
        Dipole               -0.9363 Ry au,         -2.3797 Debye
        Dipole field         -0.0013 Ry au, 

        Potential amp.        0.1570 Ry
        Total length         62.0493 bohr


     total cpu time spent up to now is     1803.9 secs

     total energy              =   -2911.85892527 Ry
     Harris-Foulkes estimate   =   -2911.90286750 Ry
     estimated scf accuracy    <       1.67539644 Ry

     iteration # 42     ecut=    36.75 Ry     beta=0.10
     Davidson diagonalization with overlap
     ethr =  9.41E-05,  avg # of iterations =  2.0

     negative rho (up, down):  9.875E-02 0.000E+00

     Adding external electric field

     Computed dipole along edir(3) : 
        Dipole               -0.8891 Ry au,         -2.2598 Debye
        Dipole field         -0.0012 Ry au, 

        Potential amp.        0.1491 Ry
        Total length         62.0493 bohr


     total cpu time spent up to now is     1840.1 secs

     total energy              =   -2911.87974591 Ry
     Harris-Foulkes estimate   =   -2911.88121585 Ry
     estimated scf accuracy    <       0.15862608 Ry

     iteration # 43     ecut=    36.75 Ry     beta=0.10
     Davidson diagonalization with overlap
     ethr =  5.29E-05,  avg # of iterations =  1.0

     negative rho (up, down):  8.836E-02 0.000E+00

     Adding external electric field

     Computed dipole along edir(3) : 
        Dipole               -0.7864 Ry au,         -1.9988 Debye
        Dipole field         -0.0011 Ry au, 

        Potential amp.        0.1319 Ry
        Total length         62.0493 bohr


     total cpu time spent up to now is     1874.2 secs

     total energy              =   -2911.87461405 Ry
     Harris-Foulkes estimate   =   -2911.88039162 Ry
     estimated scf accuracy    <       0.11126219 Ry

     iteration # 44     ecut=    36.75 Ry     beta=0.10
     Davidson diagonalization with overlap
     ethr =  3.71E-05,  avg # of iterations =  1.6

     negative rho (up, down):  9.260E-02 0.000E+00

     Adding external electric field

     Computed dipole along edir(3) : 
        Dipole               -0.7393 Ry au,         -1.8791 Debye
        Dipole field         -0.0010 Ry au, 

        Potential amp.        0.1240 Ry
        Total length         62.0493 bohr


     total cpu time spent up to now is     1909.4 secs

     total energy              =   -2911.87491539 Ry
     Harris-Foulkes estimate   =   -2911.87658341 Ry
     estimated scf accuracy    <       0.16272531 Ry

     iteration # 45     ecut=    36.75 Ry     beta=0.10
     Davidson diagonalization with overlap
     ethr =  3.71E-05,  avg # of iterations =  3.9

     negative rho (up, down):  8.238E-02 0.000E+00

     Adding external electric field

     Computed dipole along edir(3) : 
        Dipole               -0.7362 Ry au,         -1.8713 Debye
        Dipole field         -0.0010 Ry au, 

        Potential amp.        0.1235 Ry
        Total length         62.0493 bohr


     total cpu time spent up to now is     1949.2 secs

     total energy              =   -2911.87347833 Ry
     Harris-Foulkes estimate   =   -2911.87548933 Ry
     estimated scf accuracy    <       0.16213729 Ry

     iteration # 46     ecut=    36.75 Ry     beta=0.10
     Davidson diagonalization with overlap
     ethr =  3.71E-05,  avg # of iterations =  2.0

     negative rho (up, down):  6.760E-02 0.000E+00

     Adding external electric field

     Computed dipole along edir(3) : 
        Dipole               -0.7083 Ry au,         -1.8004 Debye
        Dipole field         -0.0010 Ry au, 

        Potential amp.        0.1188 Ry
        Total length         62.0493 bohr


     total cpu time spent up to now is     1985.2 secs

     total energy              =   -2911.87091217 Ry
     Harris-Foulkes estimate   =   -2911.87368747 Ry
     estimated scf accuracy    <       0.13079004 Ry

     iteration # 47     ecut=    36.75 Ry     beta=0.10
     Davidson diagonalization with overlap
     ethr =  3.71E-05,  avg # of iterations =  3.5

     negative rho (up, down):  4.193E-02 0.000E+00

     Adding external electric field

     Computed dipole along edir(3) : 
        Dipole               -0.4113 Ry au,         -1.0455 Debye
        Dipole field         -0.0006 Ry au, 

        Potential amp.        0.0690 Ry
        Total length         62.0493 bohr


     total cpu time spent up to now is     2023.9 secs

     total energy              =   -2911.86629657 Ry
     Harris-Foulkes estimate   =   -2911.87168692 Ry
     estimated scf accuracy    <       0.07339477 Ry

     iteration # 48     ecut=    36.75 Ry     beta=0.10
     Davidson diagonalization with overlap
     ethr =  2.45E-05,  avg # of iterations =  9.5

     negative rho (up, down):  4.002E-02 0.000E+00

     Adding external electric field

     Computed dipole along edir(3) : 
        Dipole               -0.4692 Ry au,         -1.1926 Debye
        Dipole field         -0.0006 Ry au, 

        Potential amp.        0.0787 Ry
        Total length         62.0493 bohr


     total cpu time spent up to now is     2077.5 secs

     total energy              =   -2911.86743446 Ry
     Harris-Foulkes estimate   =   -2911.86793628 Ry
     estimated scf accuracy    <       0.00952601 Ry

     iteration # 49     ecut=    36.75 Ry     beta=0.10
     Davidson diagonalization with overlap
     c_bands:  1 eigenvalues not converged
     ethr =  3.18E-06,  avg # of iterations =  6.4

     negative rho (up, down):  3.242E-02 0.000E+00

     Adding external electric field

     Computed dipole along edir(3) : 
        Dipole               -0.4355 Ry au,         -1.1069 Debye
        Dipole field         -0.0006 Ry au, 

        Potential amp.        0.0730 Ry
        Total length         62.0493 bohr


     total cpu time spent up to now is     2123.7 secs

     total energy              =   -2911.86698244 Ry
     Harris-Foulkes estimate   =   -2911.86773225 Ry
     estimated scf accuracy    <       0.00453712 Ry

     iteration # 50     ecut=    36.75 Ry     beta=0.10
     Davidson diagonalization with overlap
     ethr =  1.51E-06,  avg # of iterations =  9.6

     negative rho (up, down):  3.143E-02 0.000E+00

     Adding external electric field

     Computed dipole along edir(3) : 
        Dipole               -0.3917 Ry au,         -0.9956 Debye
        Dipole field         -0.0005 Ry au, 

        Potential amp.        0.0657 Ry
        Total length         62.0493 bohr


     total cpu time spent up to now is     2177.1 secs

     total energy              =   -2911.86708014 Ry
     Harris-Foulkes estimate   =   -2911.86715105 Ry
     estimated scf accuracy    <       0.00216465 Ry

     iteration # 51     ecut=    36.75 Ry     beta=0.10
     Davidson diagonalization with overlap
     ethr =  7.22E-07,  avg # of iterations =  3.8

     negative rho (up, down):  2.805E-02 0.000E+00

     Adding external electric field

     Computed dipole along edir(3) : 
        Dipole               -0.3907 Ry au,         -0.9931 Debye
        Dipole field         -0.0005 Ry au, 

        Potential amp.        0.0655 Ry
        Total length         62.0493 bohr


     total cpu time spent up to now is     2217.5 secs

     total energy              =   -2911.86677586 Ry
     Harris-Foulkes estimate   =   -2911.86717693 Ry
     estimated scf accuracy    <       0.00854933 Ry

     iteration # 52     ecut=    36.75 Ry     beta=0.10
     Davidson diagonalization with overlap
     ethr =  7.22E-07,  avg # of iterations =  6.0

     negative rho (up, down):  2.421E-02 0.000E+00

     Adding external electric field

     Computed dipole along edir(3) : 
        Dipole               -0.3573 Ry au,         -0.9082 Debye
        Dipole field         -0.0005 Ry au, 

        Potential amp.        0.0599 Ry
        Total length         62.0493 bohr


     total cpu time spent up to now is     2261.9 secs

     total energy              =   -2911.86647811 Ry
     Harris-Foulkes estimate   =   -2911.86685179 Ry
     estimated scf accuracy    <       0.00346386 Ry

     iteration # 53     ecut=    36.75 Ry     beta=0.10
     Davidson diagonalization with overlap
     ethr =  7.22E-07,  avg # of iterations =  5.8

     negative rho (up, down):  2.113E-02 0.000E+00

     Adding external electric field

     Computed dipole along edir(3) : 
        Dipole               -0.3277 Ry au,         -0.8329 Debye
        Dipole field         -0.0004 Ry au, 

        Potential amp.        0.0549 Ry
        Total length         62.0493 bohr


     total cpu time spent up to now is     2306.1 secs

     total energy              =   -2911.86634644 Ry
     Harris-Foulkes estimate   =   -2911.86655958 Ry
     estimated scf accuracy    <       0.00076004 Ry

     iteration # 54     ecut=    36.75 Ry     beta=0.10
     Davidson diagonalization with overlap
     ethr =  2.53E-07,  avg # of iterations =  5.3

     negative rho (up, down):  1.439E-02 0.000E+00

     Adding external electric field

     Computed dipole along edir(3) : 
        Dipole               -0.2626 Ry au,         -0.6674 Debye
        Dipole field         -0.0004 Ry au, 

        Potential amp.        0.0440 Ry
        Total length         62.0493 bohr


     total cpu time spent up to now is     2348.8 secs

     total energy              =   -2911.86597112 Ry
     Harris-Foulkes estimate   =   -2911.86640302 Ry
     estimated scf accuracy    <       0.00054412 Ry

     iteration # 55     ecut=    36.75 Ry     beta=0.10
     Davidson diagonalization with overlap
     ethr =  1.81E-07,  avg # of iterations =  7.2

     negative rho (up, down):  7.615E-03 0.000E+00

     Adding external electric field

     Computed dipole along edir(3) : 
        Dipole               -0.1864 Ry au,         -0.4738 Debye
        Dipole field         -0.0003 Ry au, 

        Potential amp.        0.0313 Ry
        Total length         62.0493 bohr


     total cpu time spent up to now is     2397.3 secs

     total energy              =   -2911.86569281 Ry
     Harris-Foulkes estimate   =   -2911.86602676 Ry
     estimated scf accuracy    <       0.00033803 Ry

     iteration # 56     ecut=    36.75 Ry     beta=0.10
     Davidson diagonalization with overlap
     ethr =  1.13E-07,  avg # of iterations =  9.6

     negative rho (up, down):  4.389E-03 0.000E+00

     Adding external electric field

     Computed dipole along edir(3) : 
        Dipole               -0.1305 Ry au,         -0.3317 Debye
        Dipole field         -0.0002 Ry au, 

        Potential amp.        0.0219 Ry
        Total length         62.0493 bohr


     total cpu time spent up to now is     2451.4 secs

     total energy              =   -2911.86561428 Ry
     Harris-Foulkes estimate   =   -2911.86572702 Ry
     estimated scf accuracy    <       0.00012293 Ry

     iteration # 57     ecut=    36.75 Ry     beta=0.10
     Davidson diagonalization with overlap
     ethr =  4.10E-08,  avg # of iterations =  7.7

     negative rho (up, down):  2.982E-03 0.000E+00

     Adding external electric field

     Computed dipole along edir(3) : 
        Dipole               -0.1050 Ry au,         -0.2668 Debye
        Dipole field         -0.0001 Ry au, 

        Potential amp.        0.0176 Ry
        Total length         62.0493 bohr


     total cpu time spent up to now is     2499.8 secs

     total energy              =   -2911.86559075 Ry
     Harris-Foulkes estimate   =   -2911.86562716 Ry
     estimated scf accuracy    <       0.00009142 Ry

     iteration # 58     ecut=    36.75 Ry     beta=0.10
     Davidson diagonalization with overlap
     ethr =  3.05E-08,  avg # of iterations =  5.4

     negative rho (up, down):  2.776E-03 0.000E+00

     Adding external electric field

     Computed dipole along edir(3) : 
        Dipole               -0.0877 Ry au,         -0.2230 Debye
        Dipole field         -0.0001 Ry au, 

        Potential amp.        0.0147 Ry
        Total length         62.0493 bohr


     total cpu time spent up to now is     2542.8 secs

     total energy              =   -2911.86558570 Ry
     Harris-Foulkes estimate   =   -2911.86559866 Ry
     estimated scf accuracy    <       0.00007979 Ry

     iteration # 59     ecut=    36.75 Ry     beta=0.10
     Davidson diagonalization with overlap
     ethr =  2.66E-08,  avg # of iterations =  1.6

     negative rho (up, down):  2.618E-03 0.000E+00

     Adding external electric field

     Computed dipole along edir(3) : 
        Dipole               -0.0744 Ry au,         -0.1891 Debye
        Dipole field         -0.0001 Ry au, 

        Potential amp.        0.0125 Ry
        Total length         62.0493 bohr


     total cpu time spent up to now is     2577.9 secs

     total energy              =   -2911.86558570 Ry
     Harris-Foulkes estimate   =   -2911.86559088 Ry
     estimated scf accuracy    <       0.00001863 Ry

     iteration # 60     ecut=    36.75 Ry     beta=0.10
     Davidson diagonalization with overlap
     ethr =  6.21E-09,  avg # of iterations =  2.6

     negative rho (up, down):  2.572E-03 0.000E+00

     Adding external electric field

     Computed dipole along edir(3) : 
        Dipole               -0.0698 Ry au,         -0.1773 Debye
        Dipole field         -0.0001 Ry au, 

        Potential amp.        0.0117 Ry
        Total length         62.0493 bohr


     total cpu time spent up to now is     2615.2 secs

     total energy              =   -2911.86558523 Ry
     Harris-Foulkes estimate   =   -2911.86558706 Ry
     estimated scf accuracy    <       0.00000663 Ry

     iteration # 61     ecut=    36.75 Ry     beta=0.10
     Davidson diagonalization with overlap
     ethr =  2.21E-09,  avg # of iterations =  2.0

     negative rho (up, down):  2.407E-03 0.000E+00

     Adding external electric field

     Computed dipole along edir(3) : 
        Dipole               -0.0662 Ry au,         -0.1682 Debye
        Dipole field         -0.0001 Ry au, 

        Potential amp.        0.0111 Ry
        Total length         62.0493 bohr


     total cpu time spent up to now is     2651.4 secs

     total energy              =   -2911.86558547 Ry
     Harris-Foulkes estimate   =   -2911.86558619 Ry
     estimated scf accuracy    <       0.00000628 Ry

     iteration # 62     ecut=    36.75 Ry     beta=0.10
     Davidson diagonalization with overlap
     ethr =  2.09E-09,  avg # of iterations =  3.4

     negative rho (up, down):  2.453E-03 0.000E+00

     Adding external electric field

     Computed dipole along edir(3) : 
        Dipole               -0.0656 Ry au,         -0.1667 Debye
        Dipole field         -0.0001 Ry au, 

        Potential amp.        0.0110 Ry
        Total length         62.0493 bohr


     total cpu time spent up to now is     2690.3 secs

     total energy              =   -2911.86558558 Ry
     Harris-Foulkes estimate   =   -2911.86558584 Ry
     estimated scf accuracy    <       0.00000146 Ry

     iteration # 63     ecut=    36.75 Ry     beta=0.10
     Davidson diagonalization with overlap
     ethr =  4.88E-10,  avg # of iterations =  2.0

     negative rho (up, down):  2.427E-03 0.000E+00

     Adding external electric field

     Computed dipole along edir(3) : 
        Dipole               -0.0654 Ry au,         -0.1662 Debye
        Dipole field         -0.0001 Ry au, 

        Potential amp.        0.0110 Ry
        Total length         62.0493 bohr


     total cpu time spent up to now is     2726.2 secs

     End of self-consistent calculation

          k = 0.0000 0.0000 0.0000 ( 35043 PWs)   bands (ev):

   -75.7053 -75.2579 -74.9287 -74.8132 -74.4129 -74.4074 -74.3874 -73.7830
   -73.7321 -73.7177 -73.6178 -73.6173 -73.6165 -73.6157 -73.5631 -73.5597
   -72.4980 -72.4877 -72.4871 -72.4865 -42.5312 -42.4795 -42.3705 -42.0912
   -41.9936 -41.9572 -41.7556 -41.6739 -41.6584 -41.6310 -41.5481 -41.5066
   -41.2677 -41.2411 -41.2340 -41.1321 -41.1274 -41.1245 -41.1203 -41.1000
   -41.0955 -40.5878 -40.5581 -40.5317 -40.5146 -40.5068 -40.4937 -40.4742
   -40.4634 -40.4623 -40.4615 -40.4608 -40.4304 -40.4185 -40.3519 -40.3454
   -40.3402 -40.3356 -40.3343 -40.3341 -40.3337 -40.3245 -40.3241 -40.3237
   -40.3209 -40.3208 -40.2817 -40.2648 -39.2627 -39.2621 -39.2612 -39.2556
   -39.2507 -39.2497 -39.2494 -39.2490 -39.2487 -39.2454 -39.2430 -39.2428
   -23.5600 -22.6787 -20.8961 -12.5813 -12.3741 -11.9355 -11.7715 -11.7204
   -11.6860 -11.5366 -11.4879 -11.1675 -11.1661 -11.1650 -11.0107 -11.0086
   -11.0055 -10.6208 -10.3630 -10.2194  -7.7944  -7.4666  -7.3936  -7.0278
    -6.8093  -6.5856  -6.0384  -5.8620  -5.6167  -3.6833  -3.6364  -3.5951
    -3.0115  -2.5646  -2.3084  -2.3058  -2.3035  -2.0813  -2.0225  -2.0120
    -1.9978  -1.7830  -1.6088  -1.2002  -1.1459  -1.0032  -0.9289  -0.8610
    -0.8484  -0.7948  -0.7632  -0.6513  -0.5658  -0.5609  -0.5440  -0.1599
    -0.1460  -0.1352  -0.0315  -0.0225   0.0277   0.0662   0.0676   0.0686
     0.1168   0.3889   0.3911   0.3926   0.5516   0.6331   0.6333   0.7727
     0.7729   0.7957   0.9939   1.1017   1.2103   1.3587   1.6475   1.9109
     3.0171   3.1286   3.3627   3.4012   3.6097   3.8187   3.8805   4.0099
     4.1389   4.1520

          k = 0.0000 0.0420 0.0000 ( 34984 PWs)   bands (ev):

   -75.7053 -75.2579 -74.9287 -74.8132 -74.4129 -74.4074 -74.3874 -73.7830
   -73.7320 -73.7177 -73.6178 -73.6173 -73.6165 -73.6157 -73.5631 -73.5597
   -72.4980 -72.4877 -72.4872 -72.4865 -42.5312 -42.4795 -42.3705 -42.0912
   -41.9936 -41.9572 -41.7555 -41.6739 -41.6584 -41.6310 -41.5481 -41.5066
   -41.2677 -41.2411 -41.2340 -41.1311 -41.1272 -41.1247 -41.1209 -41.1000
   -41.0958 -40.5877 -40.5580 -40.5315 -40.5146 -40.5068 -40.4939 -40.4742
   -40.4633 -40.4623 -40.4616 -40.4608 -40.4304 -40.4185 -40.3520 -40.3454
   -40.3402 -40.3356 -40.3334 -40.3327 -40.3321 -40.3255 -40.3246 -40.3237
   -40.3227 -40.3212 -40.2817 -40.2648 -39.2621 -39.2612 -39.2608 -39.2543
   -39.2505 -39.2498 -39.2496 -39.2493 -39.2486 -39.2460 -39.2447 -39.2431
   -23.5599 -22.6786 -20.8961 -12.4892 -12.3804 -11.8835 -11.8379 -11.7285
   -11.7204 -11.5351 -11.4190 -11.3059 -11.1734 -11.1728 -11.0699 -11.0077
   -11.0036 -10.5797 -10.3978 -10.1772  -7.7997  -7.4810  -7.3921  -7.0402
    -6.8224  -6.5782  -6.0427  -5.8504  -5.6190  -3.4580  -3.4055  -3.2742
    -2.8909  -2.5165  -2.1330  -2.1227  -2.0440  -1.9726  -1.9066  -1.8657
    -1.8342  -1.7624  -1.6062  -1.3892  -1.2815  -1.2457  -1.2377  -1.1136
    -1.0386  -0.9014  -0.8036  -0.7119  -0.6743  -0.5687  -0.5398  -0.5259
    -0.3093  -0.3011  -0.2531  -0.1359   0.0397   0.0518   0.0638   0.0763
     0.1324   0.1384   0.1510   0.1747   0.3281   0.4465   0.4535   0.5347
     0.7215   0.8456   1.0451   1.1219   1.3989   1.6563   1.8445   2.0648
     2.9922   3.2305   3.2868   3.5478   3.7342   3.9102   3.9177   3.9712
     4.0788   4.1602

          k = 0.0000-0.0840 0.0000 ( 35002 PWs)   bands (ev):

   -75.7053 -75.2579 -74.9287 -74.8132 -74.4129 -74.4075 -74.3874 -73.7830
   -73.7320 -73.7177 -73.6177 -73.6173 -73.6166 -73.6158 -73.5631 -73.5598
   -72.4980 -72.4876 -72.4872 -72.4865 -42.5312 -42.4795 -42.3705 -42.0912
   -41.9936 -41.9572 -41.7555 -41.6739 -41.6584 -41.6310 -41.5482 -41.5066
   -41.2677 -41.2412 -41.2340 -41.1298 -41.1267 -41.1256 -41.1214 -41.1000
   -41.0962 -40.5877 -40.5579 -40.5313 -40.5146 -40.5068 -40.4941 -40.4742
   -40.4631 -40.4623 -40.4618 -40.4608 -40.4304 -40.4186 -40.3520 -40.3454
   -40.3402 -40.3356 -40.3322 -40.3311 -40.3282 -40.3270 -40.3269 -40.3256
   -40.3231 -40.3218 -40.2817 -40.2648 -39.2616 -39.2611 -39.2593 -39.2530
   -39.2504 -39.2502 -39.2494 -39.2486 -39.2484 -39.2477 -39.2470 -39.2434
   -23.5598 -22.6785 -20.8961 -12.4376 -12.1943 -12.1663 -11.7401 -11.7274
   -11.5919 -11.5911 -11.5340 -11.2446 -11.2424 -11.1801 -11.1793 -11.0055
   -11.0013 -10.5447 -10.4146 -10.1473  -7.8068  -7.4920  -7.3957  -7.0491
    -6.8362  -6.5708  -6.0462  -5.8401  -5.6209  -3.1582  -3.0880  -2.8030
    -2.4721  -2.3197  -2.1739  -2.1117  -1.9606  -1.9139  -1.7842  -1.7353
    -1.7166  -1.6569  -1.6454  -1.6344  -1.6226  -1.5039  -1.2240  -1.1709
    -1.1566  -1.1141  -0.9900  -0.8703  -0.6986  -0.6718  -0.5798  -0.5570
    -0.5107  -0.4684  -0.4070  -0.3977  -0.3441  -0.3283  -0.1327   0.0265
     0.0479   0.1136   0.1417   0.1543   0.3253   0.3261   0.3850   0.5852
     0.5859   0.8655   1.0464   1.1454   1.5118   2.0505   2.3056   2.3664
     2.3728   2.6079   3.5618   3.8145   3.8149   4.0618   4.0952   4.1147
     4.3294   4.4319

          k = 0.0364-0.0210 0.0000 ( 34984 PWs)   bands (ev):

   -75.7053 -75.2579 -74.9287 -74.8132 -74.4129 -74.4074 -74.3874 -73.7830
   -73.7321 -73.7177 -73.6177 -73.6174 -73.6165 -73.6158 -73.5631 -73.5597
   -72.4980 -72.4877 -72.4871 -72.4865 -42.5312 -42.4795 -42.3705 -42.0912
   -41.9936 -41.9572 -41.7556 -41.6739 -41.6584 -41.6310 -41.5481 -41.5066
   -41.2677 -41.2411 -41.2340 -41.1309 -41.1270 -41.1247 -41.1212 -41.1003
   -41.0955 -40.5877 -40.5580 -40.5318 -40.5146 -40.5067 -40.4937 -40.4742
   -40.4632 -40.4625 -40.4615 -40.4608 -40.4304 -40.4185 -40.3519 -40.3454
   -40.3402 -40.3356 -40.3331 -40.3331 -40.3321 -40.3253 -40.3250 -40.3235
   -40.3226 -40.3213 -40.2817 -40.2648 -39.2616 -39.2615 -39.2611 -39.2543
   -39.2506 -39.2499 -39.2497 -39.2494 -39.2486 -39.2457 -39.2447 -39.2433
   -23.5599 -22.6785 -20.8963 -12.4842 -12.3692 -11.8707 -11.8389 -11.7688
   -11.6938 -11.5327 -11.4190 -11.3059 -11.1743 -11.1719 -11.0701 -11.0059
   -11.0052 -10.6506 -10.3581 -10.1815  -7.8076  -7.4661  -7.3748  -7.0243
    -6.8040  -6.5960  -6.0558  -5.8639  -5.6033  -3.4698  -3.3852  -3.2788
    -2.8867  -2.5133  -2.1260  -2.1212  -2.0804  -1.9805  -1.8794  -1.8637
    -1.8541  -1.7260  -1.5863  -1.3567  -1.2960  -1.2494  -1.2166  -1.1506
    -1.0588  -0.9511  -0.8049  -0.7231  -0.6714  -0.5693  -0.5527  -0.5273
    -0.3122  -0.3061  -0.2320  -0.1270  -0.0718   0.0479   0.0577   0.0643
     0.1310   0.1397   0.1415   0.1876   0.3304   0.4472   0.5197   0.5348
     0.7215   0.8740   1.0449   1.1543   1.4329   1.6986   1.8673   2.0403
     3.2279   3.2825   3.3448   3.5553   3.6017   3.8059   3.8846   3.9190
     3.9662   4.0711

          k = 0.0364 0.0210 0.0000 ( 34984 PWs)   bands (ev):

   -75.7053 -75.2579 -74.9287 -74.8132 -74.4129 -74.4074 -74.3874 -73.7830
   -73.7320 -73.7177 -73.6177 -73.6174 -73.6165 -73.6158 -73.5631 -73.5597
   -72.4980 -72.4877 -72.4872 -72.4865 -42.5312 -42.4795 -42.3705 -42.0912
   -41.9936 -41.9572 -41.7555 -41.6739 -41.6584 -41.6310 -41.5481 -41.5066
   -41.2677 -41.2411 -41.2340 -41.1319 -41.1271 -41.1243 -41.1201 -41.1003
   -41.0959 -40.5877 -40.5580 -40.5316 -40.5145 -40.5069 -40.4938 -40.4742
   -40.4632 -40.4624 -40.4615 -40.4608 -40.4304 -40.4185 -40.3520 -40.3454
   -40.3402 -40.3356 -40.3332 -40.3330 -40.3321 -40.3253 -40.3250 -40.3235
   -40.3226 -40.3213 -40.2817 -40.2648 -39.2620 -39.2612 -39.2609 -39.2544
   -39.2506 -39.2498 -39.2496 -39.2494 -39.2485 -39.2460 -39.2444 -39.2434
   -23.5599 -22.6784 -20.8964 -12.4891 -12.3818 -11.8808 -11.8380 -11.7440
   -11.7086 -11.5381 -11.4190 -11.3059 -11.1733 -11.1728 -11.0699 -11.0073
   -11.0041 -10.6106 -10.3717 -10.1577  -7.8080  -7.4546  -7.4171  -7.0325
    -6.7953  -6.5962  -6.0658  -5.8547  -5.6095  -3.4497  -3.4160  -3.2682
    -2.8818  -2.5096  -2.1334  -2.1227  -2.0535  -1.9797  -1.9001  -1.8671
    -1.8415  -1.7557  -1.6104  -1.3791  -1.2923  -1.2629  -1.2165  -1.1042
    -1.0679  -0.8840  -0.8135  -0.7180  -0.6643  -0.5723  -0.5473  -0.5261
    -0.3080  -0.3027  -0.2504  -0.1623  -0.0761   0.0476   0.0558   0.0743
     0.1284   0.1379   0.1427   0.1699   0.3260   0.4399   0.4475   0.5347
     0.7214   0.9947   1.0469   1.1777   1.4363   1.6505   1.8446   2.0344
     2.9893   3.2305   3.2869   3.5285   3.6790   3.9116   3.9153   4.0132
     4.0781   4.1871

          k = 0.0364-0.1050 0.0000 ( 34973 PWs)   bands (ev):

   -75.7053 -75.2579 -74.9287 -74.8132 -74.4129 -74.4074 -74.3874 -73.7830
   -73.7320 -73.7177 -73.6177 -73.6174 -73.6166 -73.6158 -73.5631 -73.5598
   -72.4980 -72.4876 -72.4872 -72.4865 -42.5312 -42.4795 -42.3705 -42.0912
   -41.9936 -41.9572 -41.7555 -41.6739 -41.6584 -41.6309 -41.5482 -41.5066
   -41.2677 -41.2411 -41.2340 -41.1309 -41.1270 -41.1246 -41.1206 -41.1003
   -41.0963 -40.5877 -40.5579 -40.5315 -40.5146 -40.5069 -40.4940 -40.4742
   -40.4630 -40.4625 -40.4617 -40.4609 -40.4304 -40.4186 -40.3520 -40.3454
   -40.3403 -40.3356 -40.3321 -40.3303 -40.3300 -40.3278 -40.3259 -40.3239
   -40.3239 -40.3222 -40.2817 -40.2648 -39.2614 -39.2610 -39.2597 -39.2526
   -39.2504 -39.2502 -39.2500 -39.2493 -39.2484 -39.2475 -39.2456 -39.2441
   -23.5598 -22.6783 -20.8964 -12.4401 -12.2607 -12.0034 -11.9294 -11.6675
   -11.6317 -11.5406 -11.3986 -11.3948 -11.2955 -11.1214 -11.1168 -11.0727
   -10.9677 -10.5779 -10.3882 -10.1261  -7.8126  -7.4723  -7.4173  -7.0421
    -6.8056  -6.5916  -6.0696  -5.8433  -5.6110  -3.1274  -2.9356  -2.8552
    -2.7018  -2.3574  -2.2664  -2.0976  -1.9204  -1.8542  -1.8321  -1.7072
    -1.6648  -1.6166  -1.5985  -1.5654  -1.5255  -1.4456  -1.4312  -1.1248
    -1.1011  -0.9985  -0.9481  -0.9197  -0.8978  -0.8175  -0.7142  -0.6535
    -0.5443  -0.5173  -0.3839  -0.2559  -0.1677  -0.0701  -0.0436  -0.0132
     0.0367   0.0836   0.1296   0.1382   0.2728   0.2904   0.3579   0.3767
     0.5259   1.0241   1.0597   1.1695   1.5450   1.9996   2.1946   2.2687
     2.6733   2.9093   2.9096   3.7333   3.8654   3.9197   4.0996   4.2644
     4.4827   4.6122

          k = 0.0364-0.0630 0.0000 ( 34973 PWs)   bands (ev):

   -75.7053 -75.2579 -74.9287 -74.8132 -74.4129 -74.4075 -74.3874 -73.7830
   -73.7321 -73.7177 -73.6177 -73.6174 -73.6165 -73.6158 -73.5631 -73.5598
   -72.4980 -72.4876 -72.4872 -72.4865 -42.5312 -42.4795 -42.3705 -42.0912
   -41.9936 -41.9572 -41.7555 -41.6739 -41.6584 -41.6310 -41.5482 -41.5066
   -41.2677 -41.2411 -41.2340 -41.1295 -41.1266 -41.1256 -41.1218 -41.1003
   -41.0959 -40.5876 -40.5579 -40.5317 -40.5147 -40.5068 -40.4939 -40.4742
   -40.4630 -40.4625 -40.4617 -40.4609 -40.4304 -40.4186 -40.3520 -40.3454
   -40.3403 -40.3356 -40.3320 -40.3302 -40.3301 -40.3278 -40.3259 -40.3240
   -40.3238 -40.3222 -40.2817 -40.2648 -39.2612 -39.2609 -39.2599 -39.2525
   -39.2506 -39.2504 -39.2499 -39.2494 -39.2485 -39.2470 -39.2459 -39.2440
   -23.5598 -22.6784 -20.8963 -12.4229 -12.2622 -11.9867 -11.9461 -11.6677
   -11.6315 -11.5351 -11.3973 -11.3961 -11.2955 -11.1200 -11.1182 -11.0728
   -10.9675 -10.6117 -10.3865 -10.1436  -7.8123  -7.4763  -7.3814  -7.0346
    -6.8140  -6.5915  -6.0597  -5.8522  -5.6050  -3.1294  -2.9431  -2.8442
    -2.7096  -2.3851  -2.2324  -2.0907  -1.9477  -1.8363  -1.8174  -1.7054
    -1.6617  -1.6202  -1.6026  -1.5541  -1.5212  -1.4429  -1.4304  -1.1394
    -1.1041  -0.9867  -0.9614  -0.9361  -0.8905  -0.8451  -0.7174  -0.6571
    -0.5408  -0.4824  -0.3972  -0.2592  -0.1282  -0.0799  -0.0401  -0.0288
     0.0442   0.1000   0.1210   0.1435   0.2747   0.2870   0.3638   0.4133
     0.5252   0.9371   1.0745   1.1465   1.5170   2.1372   2.1921   2.2278
     2.8981   2.9091   2.9191   3.5274   3.7992   3.8670   4.1163   4.3457
     4.4332   4.6014

          k =-0.0727 0.0420 0.0000 ( 35002 PWs)   bands (ev):

   -75.7053 -75.2579 -74.9288 -74.8132 -74.4129 -74.4074 -74.3874 -73.7830
   -73.7321 -73.7177 -73.6176 -73.6175 -73.6165 -73.6158 -73.5631 -73.5598
   -72.4980 -72.4877 -72.4871 -72.4865 -42.5312 -42.4795 -42.3705 -42.0912
   -41.9936 -41.9572 -41.7556 -41.6739 -41.6584 -41.6310 -41.5482 -41.5066
   -41.2677 -41.2411 -41.2340 -41.1293 -41.1265 -41.1256 -41.1222 -41.1006
   -41.0955 -40.5875 -40.5579 -40.5320 -40.5147 -40.5067 -40.4937 -40.4742
   -40.4629 -40.4628 -40.4615 -40.4609 -40.4304 -40.4186 -40.3520 -40.3454
   -40.3403 -40.3356 -40.3318 -40.3317 -40.3278 -40.3277 -40.3265 -40.3257
   -40.3225 -40.3223 -40.2817 -40.2648 -39.2612 -39.2609 -39.2598 -39.2533
   -39.2506 -39.2499 -39.2497 -39.2491 -39.2484 -39.2478 -39.2459 -39.2438
   -23.5599 -22.6784 -20.8965 -12.4041 -12.2147 -12.1410 -11.7773 -11.6995
   -11.5944 -11.5883 -11.5305 -11.2464 -11.2408 -11.1808 -11.1785 -11.0036
   -11.0030 -10.6759 -10.3539 -10.1472  -7.8196  -7.4603  -7.3646  -7.0206
    -6.7903  -6.6160  -6.0713  -5.8654  -5.5890  -3.1683  -3.0673  -2.7660
    -2.4353  -2.3681  -2.3328  -2.0104  -1.9268  -1.9080  -1.7394  -1.7319
    -1.6953  -1.6601  -1.6484  -1.6318  -1.6099  -1.5037  -1.2319  -1.1996
    -1.1643  -1.1351  -1.0511  -0.8752  -0.6876  -0.6768  -0.6028  -0.5913
    -0.5578  -0.4145  -0.4113  -0.3758  -0.3454  -0.3251  -0.2079  -0.1025
     0.0653   0.0840   0.1340   0.1748   0.3240   0.3274   0.4912   0.5829
     0.5879   0.8543   1.1121   1.1609   1.5792   2.1278   2.2804   2.3679
     2.3707   3.2273   3.4012   3.6936   3.8143   3.8159   4.0338   4.0673
     4.0957   4.2853

          k =-0.0727 0.0840 0.0000 ( 34973 PWs)   bands (ev):

   -75.7053 -75.2579 -74.9287 -74.8132 -74.4129 -74.4074 -74.3874 -73.7830
   -73.7321 -73.7177 -73.6176 -73.6175 -73.6165 -73.6158 -73.5631 -73.5598
   -72.4980 -72.4876 -72.4872 -72.4865 -42.5312 -42.4795 -42.3705 -42.0912
   -41.9936 -41.9572 -41.7555 -41.6739 -41.6584 -41.6310 -41.5482 -41.5066
   -41.2677 -41.2411 -41.2340 -41.1307 -41.1268 -41.1246 -41.1210 -41.1006
   -41.0959 -40.5876 -40.5579 -40.5318 -40.5146 -40.5068 -40.4938 -40.4742
   -40.4629 -40.4627 -40.4615 -40.4609 -40.4304 -40.4186 -40.3520 -40.3455
   -40.3403 -40.3356 -40.3320 -40.3303 -40.3301 -40.3280 -40.3257 -40.3239
   -40.3238 -40.3223 -40.2817 -40.2648 -39.2612 -39.2608 -39.2601 -39.2526
   -39.2508 -39.2504 -39.2498 -39.2495 -39.2481 -39.2469 -39.2459 -39.2442
   -23.5598 -22.6782 -20.8966 -12.4235 -12.2633 -11.9789 -11.9539 -11.6675
   -11.6326 -11.5379 -11.3975 -11.3960 -11.2955 -11.1203 -11.1179 -11.0728
   -10.9676 -10.6369 -10.3647 -10.1255  -7.8197  -7.4581  -7.3984  -7.0271
    -6.7842  -6.6117  -6.0832  -5.8562  -5.5960  -3.1244  -2.9418  -2.8418
    -2.6975  -2.3998  -2.2216  -2.0954  -1.9192  -1.8450  -1.8362  -1.7054
    -1.6623  -1.6176  -1.5943  -1.5614  -1.5349  -1.4470  -1.4356  -1.1369
    -1.1031  -0.9843  -0.9606  -0.9338  -0.9150  -0.8370  -0.7124  -0.6500
    -0.5339  -0.4999  -0.4047  -0.2606  -0.2448  -0.0827  -0.0413  -0.0297
     0.0433   0.1032   0.1217   0.1468   0.2757   0.2844   0.3638   0.4067
     0.5257   0.9739   1.1110   1.1918   1.6003   2.0593   2.1969   2.2395
     2.9021   2.9091   2.9246   3.6085   3.7697   3.8462   4.0660   4.3094
     4.4140   4.5810

          k =-0.0727-0.0420 0.0000 ( 35002 PWs)   bands (ev):

   -75.7053 -75.2579 -74.9287 -74.8132 -74.4129 -74.4074 -74.3874 -73.7830
   -73.7321 -73.7177 -73.6176 -73.6175 -73.6165 -73.6158 -73.5631 -73.5598
   -72.4980 -72.4876 -72.4872 -72.4865 -42.5312 -42.4795 -42.3705 -42.0912
   -41.9936 -41.9572 -41.7555 -41.6739 -41.6583 -41.6309 -41.5482 -41.5066
   -41.2677 -41.2411 -41.2340 -41.1318 -41.1268 -41.1242 -41.1199 -41.1007
   -41.0963 -40.5876 -40.5579 -40.5316 -40.5145 -40.5070 -40.4939 -40.4742
   -40.4629 -40.4627 -40.4615 -40.4609 -40.4304 -40.4186 -40.3520 -40.3454
   -40.3403 -40.3356 -40.3320 -40.3316 -40.3278 -40.3275 -40.3264 -40.3258
   -40.3227 -40.3222 -40.2817 -40.2648 -39.2615 -39.2611 -39.2594 -39.2533
   -39.2505 -39.2500 -39.2494 -39.2489 -39.2480 -39.2476 -39.2468 -39.2437
   -23.5598 -22.6781 -20.8967 -12.4393 -12.2026 -12.1575 -11.7548 -11.7157
   -11.5924 -11.5909 -11.5402 -11.2443 -11.2427 -11.1799 -11.1793 -11.0051
   -11.0018 -10.6038 -10.3673 -10.1069  -7.8178  -7.4556  -7.4343  -7.0340
    -6.7785  -6.6078  -6.0952  -5.8470  -5.6033  -3.1406  -3.0991  -2.7635
    -2.4460  -2.3495  -2.2512  -2.0712  -1.9542  -1.9146  -1.7718  -1.7328
    -1.7085  -1.6557  -1.6482  -1.6452  -1.5959  -1.5617  -1.2168  -1.1707
    -1.1595  -1.1347  -0.9894  -0.8460  -0.6937  -0.6746  -0.6081  -0.5398
    -0.5349  -0.4565  -0.4027  -0.3990  -0.3366  -0.3303  -0.2530  -0.0992
     0.0273   0.0971   0.1398   0.1495   0.3255   0.3258   0.3524   0.5851
     0.5856   1.0392   1.1501   1.2132   1.6001   2.0309   2.1706   2.3659
     2.3701   2.6410   3.6533   3.8146   3.8148   4.0633   4.0974   4.1245
     4.2531   4.3414

     the Fermi energy is     0.4235 ev

!    total energy              =   -2911.86558567 Ry
     Harris-Foulkes estimate   =   -2911.86558566 Ry
     estimated scf accuracy    <       0.00000043 Ry

     The total energy is the sum of the following terms:

     one-electron contribution =  -29079.75145384 Ry
     hartree contribution      =   14512.08526542 Ry
     xc contribution           =    -447.57145058 Ry
     ewald contribution        =   12103.42979657 Ry
     electric field correction =       0.00000578 Ry
     smearing contrib. (-TS)   =      -0.05774901 Ry

     convergence has been achieved in  63 iterations

     negative rho (up, down):  2.427E-03 0.000E+00

     Forces acting on atoms (cartesian axes, Ry/au):

     atom    1 type  1   force =    -0.00004636   -0.00008039    0.05936403
     atom    2 type  1   force =     0.00023253    0.00006800    0.05945343
     atom    3 type  1   force =    -0.00020223    0.00002743    0.05920004
     atom    4 type  1   force =     0.00003463    0.00015844    0.05941475
     atom    5 type  2   force =     0.00016586   -0.00007794   -0.06468488
     atom    6 type  2   force =     0.00017207   -0.00013660   -0.06441432
     atom    7 type  2   force =    -0.00005233    0.00001421   -0.06435199
     atom    8 type  2   force =    -0.00014067    0.00004059   -0.06467329
     atom    9 type  1   force =    -0.00036723    0.00021034   -0.01489728
     atom   10 type  1   force =    -0.00065897    0.00039772   -0.01699684
     atom   11 type  1   force =     0.00031006   -0.00013603   -0.01353399
     atom   12 type  1   force =    -0.00007823   -0.00046112   -0.01338727
     atom   13 type  2   force =     0.00172185   -0.00173621    0.02208586
     atom   14 type  2   force =     0.00163751   -0.00007137    0.01944846
     atom   15 type  2   force =    -0.00180002    0.00175654    0.01017473
     atom   16 type  2   force =    -0.00152432    0.00035337    0.02759462
     atom   17 type  1   force =    -0.00009221   -0.00050573    0.00004885
     atom   18 type  1   force =     0.00013031   -0.00023591    0.00001176
     atom   19 type  1   force =    -0.00000406    0.00029008   -0.00010591
     atom   20 type  1   force =     0.00066600   -0.00002223    0.00032196
     atom   21 type  2   force =     0.00022997    0.00041706    0.00062065
     atom   22 type  2   force =     0.00020844    0.00046812   -0.00017761
     atom   23 type  2   force =    -0.00017363    0.00000800   -0.00028389
     atom   24 type  2   force =     0.00039893    0.00010543    0.00032681
     atom   25 type  1   force =     0.00020585    0.00032495    0.00038032
     atom   26 type  1   force =     0.00019938    0.00059563   -0.00069260
     atom   27 type  1   force =    -0.00048426    0.00080884   -0.00057327
     atom   28 type  1   force =     0.00016070   -0.00025247    0.00088879
     atom   29 type  2   force =     0.00138188   -0.00031643   -0.00152234
     atom   30 type  2   force =    -0.00038145   -0.00029825    0.00028948
     atom   31 type  2   force =    -0.00017236   -0.00002635    0.00036217
     atom   32 type  2   force =     0.00084737    0.00078235   -0.00120922
     atom   33 type  1   force =    -0.00021839   -0.00118198   -0.00005371
     atom   34 type  1   force =    -0.00000319   -0.00055839   -0.00023404
     atom   35 type  1   force =    -0.00021543   -0.00083442    0.00034791
     atom   36 type  1   force =    -0.00029498   -0.00033738    0.00029176
     atom   37 type  2   force =    -0.00098617   -0.00049066   -0.00029517
     atom   38 type  2   force =     0.00119015    0.00031976    0.00027084
     atom   39 type  2   force =    -0.00167063   -0.00013495    0.00135645
     atom   40 type  2   force =    -0.00032638    0.00074798   -0.00016604

     Total force =     0.182751     Total SCF correction =     0.001755

     Writing output data file calc.save

     init_run     :     16.99s CPU     18.10s WALL (       1 calls)
     electrons    :   2646.55s CPU   2707.81s WALL (       1 calls)
     forces       :     10.71s CPU     11.00s WALL (       1 calls)

     Called by init_run:
     wfcinit      :     12.93s CPU     13.79s WALL (       1 calls)
     potinit      :      1.42s CPU      1.43s WALL (       1 calls)

     Called by electrons:
     c_bands      :   2272.40s CPU   2310.05s WALL (      63 calls)
     sum_band     :    332.92s CPU    348.24s WALL (      63 calls)
     v_of_rho     :     13.14s CPU     13.47s WALL (      64 calls)
     newd         :     25.02s CPU     32.92s WALL (      64 calls)
     mix_rho      :      2.62s CPU      2.77s WALL (      63 calls)

     Called by c_bands:
     init_us_2    :      8.87s CPU      8.93s WALL (    1280 calls)
     cegterg      :   2235.68s CPU   2273.05s WALL (     630 calls)

     Called by sum_band:
     sum_band:bec :      0.75s CPU      0.76s WALL (     630 calls)
     addusdens    :     29.48s CPU     37.69s WALL (      63 calls)

     Called by *egterg:
     h_psi        :   1143.18s CPU   1170.71s WALL (    2980 calls)
     s_psi        :    218.67s CPU    220.06s WALL (    2980 calls)
     g_psi        :      2.57s CPU      2.56s WALL (    2340 calls)
     cdiaghg      :    433.96s CPU    439.12s WALL (    2970 calls)

     Called by h_psi:
     h_psi:pot    :   1138.95s CPU   1166.43s WALL (    2980 calls)
     h_psi:calbec :    233.98s CPU    237.43s WALL (    2980 calls)
     vloc_psi     :    684.54s CPU    707.44s WALL (    2980 calls)
     add_vuspsi   :    220.43s CPU    221.54s WALL (    2980 calls)

     General routines
     calbec       :    343.70s CPU    348.75s WALL (    3650 calls)
     fft          :     10.83s CPU     11.55s WALL (    1031 calls)
     ffts         :      0.21s CPU      0.23s WALL (     127 calls)
     fftw         :    634.92s CPU    662.27s WALL (  576584 calls)
     interpolate  :      1.30s CPU      1.42s WALL (     127 calls)
     davcio       :      0.01s CPU      0.41s WALL (      10 calls)

     Parallel routines
     fft_scatter  :    164.70s CPU    191.68s WALL (  577742 calls)

     PWSCF        : 44m34.58s CPU    45m37.97s WALL


   This run was terminated on:   0:18:41  13Nov2017            

=------------------------------------------------------------------------------=
   JOB DONE.
=------------------------------------------------------------------------------=

     Program PWSCF v.6.1 starts on 13Nov2017 at  0:18:42 

     This program is part of the open-source Quantum ESPRESSO suite
     for quantum simulation of materials; please cite
         "P. Giannozzi et al., J. Phys.:Condens. Matter 21 395502 (2009);
          URL http://www.quantum-espresso.org", 
     in publications or presentations arising from this work. More details at
     http://www.quantum-espresso.org/quote

     Parallel version (MPI), running on    16 processors
     R & G space division:  proc/nbgrp/npool/nimage =      16
     Reading input from pw.inp
     Message from routine read_cards :
     DEPRECATED: no units specified in CELL_PARAMETERS card

     Current dimensions of program PWSCF are:
     Max number of different atomic species (ntypx) = 10
     Max number of k-points (npk) =  40000
     Max angular momentum in pseudopotentials (lmaxx) =  3
     Presently no symmetry can be used with electric field


     IMPORTANT: XC functional enforced from input :
     Exchange-correlation      = RPBE ( 1  4 30  4 0 0)
     Any further DFT definition will be discarded
     Please, verify this is what you really want


     Subspace diagonalization in iterative solution of the eigenvalue problem:
     one sub-group per band group will be used
     scalapack distributed-memory algorithm (size of sub-group:  2*  2 procs)


     Parallelization info
     --------------------
     sticks:   dense  smooth     PW     G-vecs:    dense   smooth      PW
     Min         266     107     29                69144    17493    2591
     Max         267     109     30                69175    17498    2612
     Sum        4267    1723    475              1106651   279935   41669



     bravais-lattice index     =            0
     lattice parameter (alat)  =       1.8897  a.u.
     unit-cell volume          =    9299.8385 (a.u.)^3
     number of atoms/cell      =           40
     number of atomic types    =            2
     number of electrons       =       300.00
     number of Kohn-Sham states=          170
     kinetic-energy cutoff     =      36.7493  Ry
     charge density cutoff     =     367.4932  Ry
     convergence threshold     =      7.3E-07
     mixing beta               =       0.1000
     number of iterations used =           10  plain     mixing
     Exchange-correlation      = RPBE ( 1  4 30  4 0 0)

     celldm(1)=   1.889726  celldm(2)=   0.000000  celldm(3)=   0.000000
     celldm(4)=   0.000000  celldm(5)=   0.000000  celldm(6)=   0.000000

     crystal axes: (cart. coord. in units of alat)
               a(1) = (   6.874000   0.000000  -0.000000 )  
               a(2) = (   3.437000   5.953000  -0.000000 )  
               a(3) = (   0.000000  -0.000000  33.677000 )  

     reciprocal axes: (cart. coord. in units 2 pi/alat)
               b(1) = (  0.145476 -0.083991 -0.000000 )  
               b(2) = (  0.000000  0.167983  0.000000 )  
               b(3) = (  0.000000  0.000000  0.029694 )  


     PseudoPot. # 1 for Mg read from file:
     /home/vossj/suncat/psp/gbrv1.5pbe/Mg.UPF
     MD5 check sum: 8ffbd8f729fef71095aac5bd8316fb1f
     Pseudo is Ultrasoft, Zval = 10.0
     Generated by new atomic code, or converted to UPF format
     Using radial grid of  821 points,  7 beta functions with: 
                l(1) =   0
                l(2) =   0
                l(3) =   0
                l(4) =   1
                l(5) =   1
                l(6) =   2
                l(7) =   2
     Q(r) pseudized with  8 coefficients,  rinner =    1.200   1.200   1.200
                                                       1.200   1.200

     PseudoPot. # 2 for N  read from file:
     /home/vossj/suncat/psp/gbrv1.5pbe/N.UPF
     MD5 check sum: 95339753478d7afb44899504a8723017
     Pseudo is Ultrasoft + core correction, Zval =  5.0
     Generated by new atomic code, or converted to UPF format
     Using radial grid of  729 points,  4 beta functions with: 
                l(1) =   0
                l(2) =   0
                l(3) =   1
                l(4) =   1
[...]
   -41.1058 -40.5850 -40.5554 -40.5304 -40.5160 -40.5067 -40.4948 -40.4715
   -40.4620 -40.4609 -40.4602 -40.4594 -40.4297 -40.4197 -40.3512 -40.3417
   -40.3392 -40.3330 -40.3327 -40.3325 -40.3309 -40.3232 -40.3227 -40.3224
   -40.3196 -40.3195 -40.2782 -40.2641 -39.2612 -39.2606 -39.2596 -39.2542
   -39.2493 -39.2483 -39.2479 -39.2476 -39.2473 -39.2440 -39.2416 -39.2414
   -23.5519 -22.6912 -20.8904 -12.5807 -12.3742 -11.9345 -11.7716 -11.7206
   -11.6832 -11.5365 -11.4872 -11.1666 -11.1653 -11.1642 -11.0094 -11.0078
   -11.0046 -10.6191 -10.3592 -10.2195  -7.7877  -7.4639  -7.3941  -7.0363
    -6.8105  -6.5828  -6.0357  -5.8569  -5.6192  -3.6835  -3.6372  -3.5912
    -3.0111  -2.5632  -2.3075  -2.3046  -2.3026  -2.0802  -2.0216  -2.0107
    -1.9970  -1.7831  -1.6091  -1.1981  -1.1429  -1.0042  -0.9300  -0.8600
    -0.8466  -0.7939  -0.7619  -0.6506  -0.5646  -0.5601  -0.5432  -0.1598
    -0.1430  -0.1352  -0.0311  -0.0217   0.0275   0.0672   0.0685   0.0694
     0.1166   0.3899   0.3921   0.3935   0.5528   0.6341   0.6343   0.7737
     0.7739   0.7950   0.9941   1.1038   1.2103   1.3586   1.6481   1.9068
     3.0217   3.1269   3.3564   3.4030   3.6097   3.8205   3.8800   4.0099
     4.1393   4.1521

          k = 0.0000 0.0420 0.0000 ( 34984 PWs)   bands (ev):

   -75.7092 -75.2595 -74.9240 -74.8107 -74.4134 -74.3985 -74.3925 -73.7803
   -73.7313 -73.7190 -73.6163 -73.6159 -73.6153 -73.6144 -73.5590 -73.5590
   -72.4965 -72.4862 -72.4859 -72.4850 -42.5348 -42.4837 -42.3741 -42.0930
   -41.9953 -41.9586 -41.7511 -41.6695 -41.6553 -41.6265 -41.5453 -41.5043
   -41.2680 -41.2515 -41.2194 -41.1267 -41.1237 -41.1166 -41.1120 -41.1083
   -41.1063 -40.5850 -40.5553 -40.5302 -40.5161 -40.5067 -40.4950 -40.4715
   -40.4618 -40.4609 -40.4603 -40.4594 -40.4297 -40.4197 -40.3513 -40.3417
   -40.3392 -40.3320 -40.3314 -40.3309 -40.3308 -40.3242 -40.3234 -40.3224
   -40.3214 -40.3199 -40.2782 -40.2641 -39.2606 -39.2597 -39.2593 -39.2529
   -39.2491 -39.2485 -39.2482 -39.2479 -39.2472 -39.2446 -39.2432 -39.2418
   -23.5519 -22.6911 -20.8904 -12.4889 -12.3800 -11.8833 -11.8372 -11.7274
   -11.7189 -11.5351 -11.4181 -11.3050 -11.1725 -11.1719 -11.0690 -11.0066
   -11.0028 -10.5785 -10.3947 -10.1765  -7.7931  -7.4790  -7.3918  -7.0485
    -6.8233  -6.5756  -6.0396  -5.8452  -5.6217  -3.4585  -3.4050  -3.2712
    -2.8905  -2.5150  -2.1320  -2.1218  -2.0428  -1.9717  -1.9061  -1.8645
    -1.8333  -1.7618  -1.6067  -1.3876  -1.2801  -1.2446  -1.2360  -1.1124
    -1.0387  -0.9010  -0.8031  -0.7121  -0.6732  -0.5679  -0.5390  -0.5252
    -0.3084  -0.3002  -0.2533  -0.1365   0.0404   0.0526   0.0645   0.0763
     0.1334   0.1394   0.1517   0.1752   0.3291   0.4475   0.4546   0.5357
     0.7225   0.8463   1.0471   1.1246   1.3979   1.6558   1.8452   2.0601
     2.9864   3.2315   3.2908   3.5491   3.7342   3.9108   3.9184   3.9731
     4.0805   4.1587

          k = 0.0000-0.0840 0.0000 ( 35002 PWs)   bands (ev):

   -75.7092 -75.2595 -74.9240 -74.8107 -74.4134 -74.3985 -74.3925 -73.7803
   -73.7313 -73.7190 -73.6163 -73.6159 -73.6154 -73.6144 -73.5590 -73.5590
   -72.4965 -72.4861 -72.4859 -72.4850 -42.5348 -42.4837 -42.3741 -42.0930
   -41.9953 -41.9586 -41.7511 -41.6695 -41.6553 -41.6265 -41.5453 -41.5044
   -41.2680 -41.2515 -41.2194 -41.1263 -41.1222 -41.1174 -41.1125 -41.1083
   -41.1068 -40.5849 -40.5552 -40.5299 -40.5162 -40.5066 -40.4952 -40.4715
   -40.4616 -40.4609 -40.4605 -40.4594 -40.4297 -40.4198 -40.3513 -40.3417
   -40.3393 -40.3309 -40.3309 -40.3299 -40.3268 -40.3257 -40.3257 -40.3243
   -40.3217 -40.3206 -40.2782 -40.2641 -39.2601 -39.2596 -39.2578 -39.2516
   -39.2490 -39.2488 -39.2479 -39.2473 -39.2470 -39.2463 -39.2456 -39.2421
   -23.5518 -22.6910 -20.8904 -12.4374 -12.1932 -12.1662 -11.7379 -11.7274
   -11.5911 -11.5900 -11.5339 -11.2436 -11.2416 -11.1792 -11.1784 -11.0044
   -11.0005 -10.5438 -10.4120 -10.1464  -7.8003  -7.4902  -7.3948  -7.0572
    -6.8367  -6.5685  -6.0428  -5.8348  -5.6237  -3.1590  -3.0873  -2.8018
    -2.4686  -2.3192  -2.1735  -2.1092  -1.9597  -1.9133  -1.7830  -1.7340
    -1.7148  -1.6558  -1.6446  -1.6324  -1.6218  -1.5066  -1.2224  -1.1700
    -1.1559  -1.1140  -0.9891  -0.8728  -0.6976  -0.6716  -0.5782  -0.5574
    -0.5093  -0.4699  -0.4061  -0.3969  -0.3433  -0.3272  -0.1327   0.0274
     0.0477   0.1138   0.1428   0.1547   0.3263   0.3271   0.3863   0.5861
     0.5870   0.8660   1.0516   1.1477   1.5118   2.0487   2.3014   2.3677
     2.3740   2.5992   3.5632   3.8154   3.8157   4.0649   4.1004   4.1174
     4.3311   4.4372

          k = 0.0364-0.0210 0.0000 ( 34984 PWs)   bands (ev):

   -75.7092 -75.2595 -74.9240 -74.8107 -74.4134 -74.3985 -74.3925 -73.7803
   -73.7313 -73.7190 -73.6163 -73.6160 -73.6153 -73.6144 -73.5590 -73.5590
   -72.4965 -72.4862 -72.4858 -72.4850 -42.5348 -42.4837 -42.3741 -42.0930
   -41.9953 -41.9586 -41.7511 -41.6695 -41.6553 -41.6265 -41.5453 -41.5043
   -41.2680 -41.2515 -41.2194 -41.1267 -41.1242 -41.1154 -41.1120 -41.1092
   -41.1059 -40.5849 -40.5553 -40.5305 -40.5161 -40.5066 -40.4948 -40.4715
   -40.4618 -40.4610 -40.4602 -40.4594 -40.4297 -40.4197 -40.3513 -40.3417
   -40.3393 -40.3318 -40.3317 -40.3309 -40.3308 -40.3240 -40.3236 -40.3222
   -40.3213 -40.3200 -40.2782 -40.2641 -39.2601 -39.2600 -39.2595 -39.2530
   -39.2492 -39.2485 -39.2483 -39.2479 -39.2472 -39.2443 -39.2432 -39.2419
   -23.5519 -22.6910 -20.8906 -12.4838 -12.3691 -11.8691 -11.8379 -11.7710
   -11.6906 -11.5327 -11.4181 -11.3050 -11.1733 -11.1711 -11.0691 -11.0051
   -11.0041 -10.6487 -10.3544 -10.1817  -7.8012  -7.4630  -7.3754  -7.0331
    -6.8052  -6.5935  -6.0524  -5.8589  -5.6057  -3.4699  -3.3827  -3.2778
    -2.8865  -2.5119  -2.1247  -2.1203  -2.0798  -1.9795  -1.8782  -1.8631
    -1.8531  -1.7258  -1.5865  -1.3548  -1.2950  -1.2500  -1.2145  -1.1491
    -1.0589  -0.9510  -0.8043  -0.7216  -0.6706  -0.5683  -0.5522  -0.5266
    -0.3110  -0.3050  -0.2294  -0.1281  -0.0712   0.0490   0.0587   0.0652
     0.1318   0.1406   0.1424   0.1879   0.3313   0.4482   0.5206   0.5358
     0.7225   0.8742   1.0444   1.1575   1.4310   1.6984   1.8676   2.0358
     3.2289   3.2857   3.3388   3.5546   3.6033   3.8071   3.8854   3.9197
     3.9677   4.0719

          k = 0.0364 0.0210 0.0000 ( 34984 PWs)   bands (ev):

   -75.7092 -75.2595 -74.9240 -74.8107 -74.4134 -74.3985 -74.3925 -73.7803
   -73.7313 -73.7190 -73.6163 -73.6160 -73.6153 -73.6144 -73.5590 -73.5590
   -72.4965 -72.4862 -72.4858 -72.4850 -42.5348 -42.4837 -42.3741 -42.0930
   -41.9953 -41.9586 -41.7511 -41.6695 -41.6553 -41.6265 -41.5453 -41.5043
   -41.2680 -41.2515 -41.2194 -41.1272 -41.1239 -41.1152 -41.1115 -41.1092
   -41.1065 -40.5849 -40.5553 -40.5303 -40.5160 -40.5067 -40.4949 -40.4715
   -40.4618 -40.4610 -40.4602 -40.4594 -40.4297 -40.4197 -40.3513 -40.3417
   -40.3393 -40.3319 -40.3316 -40.3309 -40.3307 -40.3240 -40.3236 -40.3222
   -40.3213 -40.3200 -40.2782 -40.2641 -39.2605 -39.2597 -39.2594 -39.2529
   -39.2491 -39.2484 -39.2482 -39.2479 -39.2471 -39.2446 -39.2431 -39.2419
   -23.5519 -22.6909 -20.8907 -12.4887 -12.3816 -11.8810 -11.8373 -11.7410
   -11.7087 -11.5380 -11.4182 -11.3051 -11.1723 -11.1720 -11.0689 -11.0063
   -11.0032 -10.6091 -10.3686 -10.1573  -7.8017  -7.4532  -7.4155  -7.0410
    -6.7973  -6.5931  -6.0624  -5.8495  -5.6120  -3.4477  -3.4166  -3.2666
    -2.8813  -2.5081  -2.1324  -2.1216  -2.0524  -1.9788  -1.8997  -1.8659
    -1.8405  -1.7555  -1.6113  -1.3783  -1.2915  -1.2617  -1.2155  -1.1040
    -1.0684  -0.8831  -0.8122  -0.7164  -0.6637  -0.5714  -0.5465  -0.5255
    -0.3068  -0.3018  -0.2489  -0.1637  -0.0745   0.0484   0.0568   0.0750
     0.1294   0.1387   0.1438   0.1706   0.3270   0.4410   0.4485   0.5357
     0.7224   0.9947   1.0490   1.1806   1.4335   1.6497   1.8452   2.0298
     2.9841   3.2315   3.2910   3.5291   3.6786   3.9123   3.9158   4.0133
     4.0783   4.1879

          k = 0.0364-0.1050 0.0000 ( 34973 PWs)   bands (ev):

   -75.7092 -75.2595 -74.9240 -74.8107 -74.4134 -74.3985 -74.3925 -73.7803
   -73.7313 -73.7190 -73.6162 -73.6160 -73.6153 -73.6144 -73.5590 -73.5590
   -72.4965 -72.4861 -72.4859 -72.4850 -42.5348 -42.4837 -42.3741 -42.0930
   -41.9953 -41.9586 -41.7511 -41.6695 -41.6553 -41.6265 -41.5453 -41.5044
   -41.2680 -41.2515 -41.2194 -41.1267 -41.1227 -41.1158 -41.1119 -41.1092
   -41.1071 -40.5849 -40.5552 -40.5301 -40.5161 -40.5067 -40.4951 -40.4715
   -40.4616 -40.4611 -40.4604 -40.4595 -40.4297 -40.4198 -40.3513 -40.3417
   -40.3393 -40.3309 -40.3307 -40.3289 -40.3287 -40.3265 -40.3246 -40.3226
   -40.3225 -40.3209 -40.2782 -40.2641 -39.2599 -39.2595 -39.2582 -39.2511
   -39.2489 -39.2488 -39.2486 -39.2479 -39.2470 -39.2461 -39.2442 -39.2427
   -23.5518 -22.6908 -20.8907 -12.4401 -12.2599 -12.0048 -11.9263 -11.6668
   -11.6307 -11.5405 -11.3977 -11.3940 -11.2945 -11.1205 -11.1158 -11.0719
   -10.9667 -10.5766 -10.3856 -10.1254  -7.8062  -7.4717  -7.4145  -7.0504
    -6.8073  -6.5887  -6.0659  -5.8381  -5.6137  -3.1271  -2.9341  -2.8544
    -2.7012  -2.3558  -2.2654  -2.0961  -1.9189  -1.8533  -1.8313  -1.7063
    -1.6638  -1.6159  -1.5975  -1.5661  -1.5260  -1.4448  -1.4308  -1.1235
    -1.0997  -0.9975  -0.9482  -0.9192  -0.8968  -0.8181  -0.7142  -0.6523
    -0.5444  -0.5168  -0.3834  -0.2550  -0.1683  -0.0687  -0.0426  -0.0125
     0.0377   0.0846   0.1303   0.1389   0.2739   0.2912   0.3588   0.3778
     0.5268   1.0236   1.0655   1.1725   1.5432   1.9955   2.1957   2.2640
     2.6682   2.9105   2.9108   3.7332   3.8697   3.9211   4.1007   4.2661
     4.4818   4.6155

          k = 0.0364-0.0630 0.0000 ( 34973 PWs)   bands (ev):

   -75.7092 -75.2595 -74.9240 -74.8107 -74.4134 -74.3985 -74.3925 -73.7803
   -73.7313 -73.7190 -73.6162 -73.6160 -73.6153 -73.6144 -73.5590 -73.5590
   -72.4965 -72.4862 -72.4859 -72.4850 -42.5348 -42.4837 -42.3741 -42.0930
   -41.9953 -41.9586 -41.7511 -41.6695 -41.6553 -41.6265 -41.5453 -41.5043
   -41.2680 -41.2515 -41.2194 -41.1263 -41.1229 -41.1162 -41.1124 -41.1092
   -41.1065 -40.5848 -40.5552 -40.5303 -40.5162 -40.5066 -40.4950 -40.4715
   -40.4616 -40.4611 -40.4604 -40.4595 -40.4297 -40.4197 -40.3513 -40.3417
   -40.3393 -40.3309 -40.3307 -40.3289 -40.3288 -40.3265 -40.3246 -40.3226
   -40.3224 -40.3209 -40.2782 -40.2641 -39.2597 -39.2594 -39.2584 -39.2511
   -39.2493 -39.2490 -39.2485 -39.2480 -39.2470 -39.2455 -39.2445 -39.2426
   -23.5518 -22.6909 -20.8906 -12.4230 -12.2618 -11.9848 -11.9463 -11.6667
   -11.6303 -11.5352 -11.3964 -11.3953 -11.2945 -11.1190 -11.1173 -11.0720
   -10.9665 -10.6102 -10.3833 -10.1433  -7.8058  -7.4737  -7.3812  -7.0431
    -6.8151  -6.5891  -6.0559  -5.8471  -5.6076  -3.1294  -2.9421  -2.8417
    -2.7096  -2.3841  -2.2301  -2.0907  -1.9454  -1.8355  -1.8166  -1.7047
    -1.6611  -1.6193  -1.6018  -1.5535  -1.5216  -1.4424  -1.4300  -1.1376
    -1.1027  -0.9865  -0.9603  -0.9357  -0.8895  -0.8450  -0.7173  -0.6565
    -0.5400  -0.4812  -0.3964  -0.2582  -0.1288  -0.0795  -0.0393  -0.0280
     0.0449   0.1010   0.1219   0.1440   0.2755   0.2879   0.3647   0.4143
     0.5261   0.9370   1.0771   1.1498   1.5162   2.1353   2.1904   2.2249
     2.8940   2.9103   2.9171   3.5288   3.8030   3.8711   4.1169   4.3460
     4.4337   4.6028

          k =-0.0727 0.0420 0.0000 ( 35002 PWs)   bands (ev):

   -75.7092 -75.2595 -74.9240 -74.8107 -74.4134 -74.3985 -74.3925 -73.7803
   -73.7313 -73.7190 -73.6161 -73.6161 -73.6153 -73.6144 -73.5590 -73.5590
   -72.4965 -72.4862 -72.4858 -72.4850 -42.5348 -42.4837 -42.3741 -42.0930
   -41.9953 -41.9586 -41.7511 -41.6695 -41.6553 -41.6265 -41.5453 -41.5043
   -41.2680 -41.2515 -41.2194 -41.1263 -41.1235 -41.1144 -41.1121 -41.1111
   -41.1060 -40.5847 -40.5552 -40.5307 -40.5161 -40.5066 -40.4948 -40.4715
   -40.4614 -40.4614 -40.4602 -40.4595 -40.4297 -40.4197 -40.3513 -40.3417
   -40.3393 -40.3309 -40.3305 -40.3303 -40.3265 -40.3263 -40.3253 -40.3243
   -40.3213 -40.3209 -40.2782 -40.2641 -39.2597 -39.2594 -39.2583 -39.2519
   -39.2491 -39.2484 -39.2483 -39.2476 -39.2471 -39.2463 -39.2444 -39.2424
   -23.5519 -22.6909 -20.8908 -12.4043 -12.2156 -12.1381 -11.7790 -11.6963
   -11.5935 -11.5875 -11.5306 -11.2454 -11.2398 -11.1799 -11.1777 -11.0028
   -11.0019 -10.6739 -10.3501 -10.1476  -7.8133  -7.4569  -7.3653  -7.0296
    -6.7922  -6.6133  -6.0672  -5.8604  -5.5913  -3.1686  -3.0636  -2.7654
    -2.4341  -2.3672  -2.3341  -2.0080  -1.9259  -1.9071  -1.7384  -1.7315
    -1.6948  -1.6591  -1.6474  -1.6318  -1.6100  -1.5042  -1.2296  -1.1984
    -1.1633  -1.1352  -1.0495  -0.8746  -0.6871  -0.6760  -0.6025  -0.5899
    -0.5567  -0.4132  -0.4096  -0.3731  -0.3441  -0.3243  -0.2081  -0.1024
     0.0664   0.0846   0.1346   0.1748   0.3249   0.3284   0.4918   0.5839
     0.5889   0.8550   1.1112   1.1649   1.5765   2.1237   2.2758   2.3694
     2.3721   3.2256   3.3991   3.6937   3.8152   3.8167   4.0378   4.0709
     4.1008   4.2857

          k =-0.0727 0.0840 0.0000 ( 34973 PWs)   bands (ev):

   -75.7092 -75.2595 -74.9240 -74.8107 -74.4134 -74.3985 -74.3925 -73.7803
   -73.7313 -73.7190 -73.6162 -73.6161 -73.6153 -73.6144 -73.5590 -73.5590
   -72.4965 -72.4862 -72.4859 -72.4850 -42.5348 -42.4837 -42.3740 -42.0930
   -41.9953 -41.9586 -41.7511 -41.6695 -41.6553 -41.6265 -41.5453 -41.5043
   -41.2680 -41.2515 -41.2194 -41.1267 -41.1234 -41.1137 -41.1121 -41.1110
   -41.1066 -40.5848 -40.5552 -40.5304 -40.5161 -40.5067 -40.4949 -40.4715
   -40.4615 -40.4613 -40.4603 -40.4595 -40.4297 -40.4197 -40.3513 -40.3417
   -40.3393 -40.3309 -40.3307 -40.3289 -40.3287 -40.3266 -40.3244 -40.3226
   -40.3225 -40.3210 -40.2782 -40.2641 -39.2597 -39.2593 -39.2585 -39.2512
   -39.2493 -39.2490 -39.2484 -39.2480 -39.2468 -39.2454 -39.2445 -39.2427
   -23.5518 -22.6908 -20.8909 -12.4237 -12.2628 -11.9784 -11.9527 -11.6666
   -11.6315 -11.5379 -11.3965 -11.3952 -11.2945 -11.1192 -11.1171 -11.0719
   -10.9666 -10.6352 -10.3615 -10.1254  -7.8135  -7.4558  -7.3975  -7.0359
    -6.7866  -6.6087  -6.0790  -5.8511  -5.5985  -3.1228  -2.9410  -2.8396
    -2.6975  -2.3983  -2.2214  -2.0958  -1.9185  -1.8438  -1.8351  -1.7047
    -1.6620  -1.6166  -1.5936  -1.5613  -1.5347  -1.4462  -1.4352  -1.1357
    -1.1020  -0.9839  -0.9597  -0.9332  -0.9139  -0.8365  -0.7114  -0.6502
    -0.5323  -0.4976  -0.4037  -0.2598  -0.2449  -0.0819  -0.0403  -0.0291
     0.0442   0.1040   0.1228   0.1474   0.2766   0.2853   0.3647   0.4074
     0.5267   0.9742   1.1139   1.1944   1.5976   2.0545   2.1978   2.2354
     2.9016   2.9103   2.9230   3.6069   3.7718   3.8501   4.0680   4.3084
     4.4149   4.5814

          k =-0.0727-0.0420 0.0000 ( 35002 PWs)   bands (ev):

   -75.7092 -75.2595 -74.9240 -74.8107 -74.4134 -74.3985 -74.3925 -73.7803
   -73.7313 -73.7190 -73.6162 -73.6161 -73.6153 -73.6144 -73.5590 -73.5590
   -72.4965 -72.4862 -72.4859 -72.4850 -42.5348 -42.4837 -42.3741 -42.0930
   -41.9953 -41.9586 -41.7511 -41.6695 -41.6553 -41.6265 -41.5453 -41.5044
   -41.2680 -41.2515 -41.2194 -41.1272 -41.1231 -41.1131 -41.1121 -41.1108
   -41.1073 -40.5848 -40.5552 -40.5302 -40.5160 -40.5068 -40.4951 -40.4715
   -40.4614 -40.4613 -40.4602 -40.4595 -40.4297 -40.4198 -40.3513 -40.3417
   -40.3393 -40.3309 -40.3307 -40.3302 -40.3264 -40.3262 -40.3252 -40.3244
   -40.3214 -40.3208 -40.2782 -40.2641 -39.2600 -39.2596 -39.2579 -39.2518
   -39.2490 -39.2487 -39.2479 -39.2475 -39.2467 -39.2462 -39.2454 -39.2422
   -23.5518 -22.6906 -20.8910 -12.4394 -12.2011 -12.1580 -11.7517 -11.7164
   -11.5916 -11.5900 -11.5400 -11.2433 -11.2419 -11.1790 -11.1785 -11.0040
   -11.0010 -10.6023 -10.3645 -10.1065  -7.8116  -7.4586  -7.4275  -7.0426
    -6.7814  -6.6044  -6.0910  -5.8418  -5.6058  -3.1381  -3.0987  -2.7630
    -2.4463  -2.3482  -2.2480  -2.0716  -1.9539  -1.9139  -1.7714  -1.7317
    -1.7080  -1.6548  -1.6472  -1.6445  -1.5947  -1.5641  -1.2160  -1.1697
    -1.1582  -1.1358  -0.9870  -0.8480  -0.6929  -0.6740  -0.6074  -0.5381
    -0.5319  -0.4563  -0.4021  -0.3983  -0.3360  -0.3294  -0.2521  -0.0981
     0.0282   0.0979   0.1408   0.1504   0.3265   0.3268   0.3531   0.5860
     0.5866   1.0426   1.1522   1.2157   1.5970   2.0253   2.1655   2.3674
     2.3715   2.6392   3.6509   3.8155   3.8157   4.0665   4.1020   4.1235
     4.2533   4.3423

     the Fermi energy is     0.4244 ev

!    total energy              =   -2911.86565512 Ry
     Harris-Foulkes estimate   =   -2911.86565317 Ry
     estimated scf accuracy    <       0.00000066 Ry

     The total energy is the sum of the following terms:

     one-electron contribution =  -29080.14305272 Ry
     hartree contribution      =   14512.26869990 Ry
     xc contribution           =    -447.56968454 Ry
     ewald contribution        =   12103.63610239 Ry
     electric field correction =       0.00000705 Ry
     smearing contrib. (-TS)   =      -0.05772720 Ry

     convergence has been achieved in  38 iterations

     negative rho (up, down):  2.428E-03 0.000E+00

     Forces acting on atoms (cartesian axes, Ry/au):

     atom    1 type  1   force =    -0.00007244   -0.00006627    0.05934031
     atom    2 type  1   force =     0.00017432    0.00006843    0.05941224
     atom    3 type  1   force =    -0.00017610   -0.00002532    0.05922909
     atom    4 type  1   force =     0.00009216    0.00013240    0.05939289
     atom    5 type  2   force =     0.00016084   -0.00009582   -0.06460582
     atom    6 type  2   force =     0.00016968   -0.00015219   -0.06433937
     atom    7 type  2   force =    -0.00005118    0.00000372   -0.06427197
     atom    8 type  2   force =    -0.00014409    0.00003004   -0.06459005
     atom    9 type  1   force =    -0.00040489    0.00007376   -0.01489350
     atom   10 type  1   force =    -0.00063835    0.00046238   -0.01699777
     atom   11 type  1   force =     0.00041234   -0.00014050   -0.01356374
     atom   12 type  1   force =    -0.00012429   -0.00045817   -0.01341209
     atom   13 type  2   force =     0.00169083   -0.00171176    0.02220147
     atom   14 type  2   force =     0.00162964   -0.00011115    0.01956413
     atom   15 type  2   force =    -0.00178089    0.00169106    0.01079736
     atom   16 type  2   force =    -0.00152817    0.00040503    0.02774426
     atom   17 type  1   force =    -0.00016799   -0.00005042   -0.00009001
     atom   18 type  1   force =     0.00004728    0.00021289   -0.00003945
     atom   19 type  1   force =     0.00023858   -0.00004566    0.00033318
     atom   20 type  1   force =     0.00042816    0.00014377   -0.00032310
     atom   21 type  2   force =     0.00005735    0.00005887    0.00010211
     atom   22 type  2   force =    -0.00013379    0.00014453    0.00015820
     atom   23 type  2   force =     0.00053379    0.00014977   -0.00001332
     atom   24 type  2   force =    -0.00003749    0.00021750    0.00014306
     atom   25 type  1   force =     0.00002818    0.00005274    0.00014532
     atom   26 type  1   force =    -0.00000051    0.00014331    0.00015491
     atom   27 type  1   force =     0.00026230    0.00002146    0.00030995
     atom   28 type  1   force =     0.00033917    0.00061149   -0.00027258
     atom   29 type  2   force =     0.00031126   -0.00013695   -0.00033385
     atom   30 type  2   force =    -0.00035172   -0.00043392   -0.00010223
     atom   31 type  2   force =    -0.00023594   -0.00035424   -0.00009466
     atom   32 type  2   force =    -0.00108179   -0.00075730   -0.00111464
     atom   33 type  1   force =     0.00043855    0.00044624   -0.00014374
     atom   34 type  1   force =     0.00006765    0.00000808   -0.00054033
     atom   35 type  1   force =    -0.00029951   -0.00020684   -0.00023816
     atom   36 type  1   force =    -0.00004694    0.00037111   -0.00017547
     atom   37 type  2   force =     0.00066961    0.00045257    0.00008964
     atom   38 type  2   force =    -0.00009031   -0.00038683    0.00057917
     atom   39 type  2   force =    -0.00057862   -0.00019897    0.00033871
     atom   40 type  2   force =     0.00019329   -0.00056881    0.00011985
